# vtk DataFile Version 1.0
Net Charge Density
ASCII
DATASET STRUCTURED_POINTS
DIMENSIONS 256 128 1
ORIGIN 0 0 0
SPACING 0.15625 0.15625 1
POINT_DATA 32768
SCALARS rhonet float
LOOKUP_TABLE default
-0.000123353
-0.000162405
7.61936e-05
0.000182587
4.58676e-07
0.000192071
3.61005e-05
-3.82353e-05
0.000213107
0.000204061
2.11139e-05
0.000277607
0.000125381
-0.000187648
-0.000210257
0.000242382
0.000138643
-9.4993e-05
-2.68802e-05
2.8245e-05
4.39561e-06
0.000102154
-7.48419e-05
7.22411e-05
7.60173e-05
3.48082e-05
4.71039e-05
8.44946e-05
0.000278669
2.66073e-05
-0.000173819
-0.00011038
0.000118755
0.000201052
4.527e-05
0.0001099
0.000103914
-4.00923e-05
4.40667e-06
4.75665e-05
0.000189443
0.000126921
9.89466e-05
0.000102952
0.000114633
-3.02144e-06
4.19641e-05
8.72544e-05
5.13183e-05
0.000114545
0.000179373
1.05683e-05
0.000115247
0.000158113
-0.000113421
3.5722e-05
-4.07953e-05
0.000172192
0.000107929
0.000130741
-0.000190184
0.000311158
0.000158269
-8.30523e-05
-7.22158e-05
5.3707e-06
-6.1797e-05
0.000161392
3.05464e-05
-7.61453e-05
-0.000109057
-0.000103656
-1.22776e-05
0.000270712
3.6482e-05
-1.29755e-05
5.38593e-05
7.93035e-05
0.000142169
4.55028e-05
-0.000158437
-9.76978e-05
0.000276608
0.00016988
0.000160565
0.000161268
0.000178582
-0.000174177
0.000224316
0.000307085
5.2111e-05
-4.01008e-05
4.97266e-05
1.11114e-05
4.17291e-06
0.000220412
-0.000114256
4.72908e-05
-5.38258e-06
0.000452871
0.000172245
-2.6947e-05
9.78578e-05
3.59575e-05
6.98818e-06
0.000123156
8.99972e-06
6.50951e-05
-2.64676e-05
-0.000122796
0.000206235
0.000123946
-8.90982e-05
-4.40294e-06
-0.000258886
-0.000133437
0.000226473
9.86704e-05
4.04757e-05
-0.000188966
1.03812e-05
6.31519e-05
9.10298e-06
0.000104616
1.8361e-06
-1.48638e-05
6.60182e-05
7.13731e-05
0.000134874
2.74419e-05
4.09418e-05
0.000103491
0.000195368
-0.000114053
4.83494e-05
8.82947e-05
0.000341087
1.60725e-05
2.91127e-05
-5.3565e-05
-3.67477e-05
6.60463e-05
-5.52826e-05
1.05982e-05
6.2498e-05
3.85427e-05
0.000120635
0.000104764
2.37909e-05
0.000167761
1.80684e-05
-6.38568e-05
0.000138939
0.000218975
0.000206998
1.70693e-05
7.9337e-05
6.37871e-05
0.000140162
4.65199e-05
9.89488e-05
6.25472e-05
-5.55543e-05
2.67515e-05
5.9647e-05
-0.000160318
0.000126886
0.000207179
0.000207284
3.52482e-05
-0.000108751
0.000214063
-4.35343e-05
-8.902e-05
0.000183693
-1.76907e-05
0.000217703
7.52852e-05
-0.000178007
0.000105074
0.000114418
0.000110291
7.89552e-06
-0.000129814
6.66745e-05
0.000104245
0.00011606
0.000128012
0.000213452
0.000200294
0.000215957
0.000170416
-2.77977e-05
-5.3974e-05
-9.53348e-05
0.000192658
0.000265577
8.57065e-05
0.000191684
-2.05312e-05
-6.99076e-05
0.000117748
8.12939e-05
8.54387e-05
-0.000127552
0.000103811
6.02691e-05
1.86994e-05
0.000116834
1.50424e-05
3.84494e-05
0.000158414
-8.72663e-05
0.000112729
-9.06596e-06
-0.000100225
0.000108954
7.75678e-05
0.000138834
-2.99572e-06
-0.000113418
-4.58497e-05
0.000148706
0.000132873
-7.43112e-05
3.07183e-05
-8.70088e-07
0.000137218
-0.000122038
-6.48147e-05
0.00028543
-2.5616e-05
-0.000242454
0.000209183
0.000147959
9.19399e-05
9.17492e-05
1.05413e-05
8.30984e-05
0.000169009
-3.26918e-06
-8.13731e-05
0.000130954
0.000106021
0.00016838
7.53403e-05
2.32568e-05
0.000107369
6.21895e-05
-1.33252e-05
-0.000107962
-5.8667e-05
1.65213e-05
3.72529e-08
-0.000157112
4.90164e-05
0.00022764
1.07945e-05
1.07675e-05
-0.000112648
1.00387e-05
-9.67006e-05
-0.000187678
-1.35102e-05
0.000140243
-9.82236e-05
-3.26942e-05
0.000165887
-6.70636e-05
-9.35354e-05
-0.000199571
-2.31962e-05
1.95829e-05
-8.96137e-05
3.77313e-05
6.24228e-05
-1.71667e-05
-0.000171404
2.76312e-06
-0.000120133
-4.77044e-05
-0.000214538
7.76346e-05
-4.1849e-06
3.78115e-05
-1.0968e-05
-6.80987e-05
0.000135763
-4.99277e-05
-1.08607e-05
1.49547e-06
-1.24103e-05
-2.27611e-05
-0.000138324
-6.58866e-05
4.47667e-05
-5.92374e-05
-9.28566e-05
-3.07688e-05
8.01423e-05
-0.000122731
-0.000161056
0.000104472
3.79919e-05
-2.82552e-05
2.27673e-05
-7.75572e-05
2.83372e-05
-3.57092e-06
1.33386e-05
-0.000131177
-4.1838e-05
7.81169e-05
2.79432e-06
-0.00011795
7.76974e-05
-2.91265e-05
-0.000105762
-1.43535e-05
-6.97467e-06
-0.000112785
2.94126e-05
1.30885e-05
3.93684e-05
0.000106342
-9.81305e-05
1.68326e-05
-1.03642e-05
-3.64308e-05
8.37413e-05
1.86148e-07
-2.0623e-06
-1.91259e-05
-7.37405e-05
4.66835e-05
-1.8923e-05
-0.000144619
-8.85397e-05
5.44965e-05
-5.31061e-05
-6.77491e-06
-7.21755e-05
1.52467e-05
-0.000199867
4.91005e-05
-0.000137238
-0.000188245
-5.29001e-05
-6.38906e-05
-3.95174e-05
4.17139e-05
2.03031e-05
-0.000116709
1.7684e-05
-0.000131507
5.91939e-05
-0.00012789
-6.12254e-05
-8.91015e-05
0.00016223
2.1019e-05
-0.000105682
-6.95729e-05
9.10674e-05
-8.38519e-05
-0.000163736
-7.83711e-05
-2.16321e-05
-0.000216751
0.000121179
-1.14944e-05
-9.02754e-05
4.09218e-05
-5.05137e-05
-5.88263e-05
-0.000120277
-2.10712e-05
-8.69279e-05
9.61765e-05
0.000130191
-6.42126e-05
6.58435e-05
6.9494e-05
-8.39258e-05
0.000102061
-0.000124549
7.59377e-07
8.59129e-05
-4.85576e-05
-7.21009e-05
-6.64991e-05
4.07047e-05
-7.47872e-05
-0.000144563
-7.29972e-05
-7.92878e-05
7.98686e-05
0.000160381
-0.000135851
4.35067e-06
-0.00018083
-5.82566e-06
4.04762e-05
7.69095e-05
-5.92084e-05
0.000215599
-5.34712e-05
-7.12117e-05
-5.06861e-05
-7.56399e-05
-0.000136221
-0.00011959
4.36225e-05
-1.92164e-05
-4.94262e-05
-2.6144e-05
2.41923e-06
-9.47528e-06
4.43257e-05
-6.58558e-05
0.000110594
-2.84427e-05
-9.79641e-05
1.93957e-05
-0.000130207
-8.26252e-05
-1.76998e-06
0.000263002
-5.90835e-05
3.80001e-05
-7.75293e-05
-0.00011196
7.47102e-05
-5.1948e-06
-6.30686e-05
-4.32678e-05
-4.74326e-05
-2.69919e-05
-5.26058e-05
-6.0129e-05
-9.12182e-05
-7.5188e-05
-5.51847e-05
-9.53132e-05
-3.65559e-05
-0.000154692
-7.85834e-05
-5.99965e-05
2.09425e-05
2.17353e-05
-5.13401e-05
-3.48222e-06
-0.000105131
-0.000130082
-7.69214e-05
-6.39897e-05
-5.12162e-05
2.86377e-05
-9.30966e-05
-4.41617e-05
0.000130501
-0.000260629
3.73588e-05
7.60846e-05
2.54218e-05
-8.645e-07
2.68624e-05
-4.47973e-05
4.4463e-05
3.65974e-05
-3.25441e-05
-4.12355e-06
-7.35418e-05
-9.19973e-05
-9.63346e-05
9.43361e-05
7.29552e-05
2.56745e-05
-2.45996e-05
-9.89443e-05
5.34242e-06
-2.16255e-05
5.18864e-05
6.30522e-05
-7.81734e-05
2.37653e-05
-3.88995e-05
9.97086e-06
-0.000189058
-3.68872e-05
1.29346e-05
-0.000117017
-0.000126642
4.64815e-05
0.000137135
-8.00015e-05
-2.98161e-05
1.85238e-05
-8.46202e-05
-1.47895e-05
-4.5525e-05
-3.5331e-05
-6.50054e-05
-0.000134305
-0.000147643
-0.000147721
3.6672e-05
1.04968e-05
7.97258e-05
-8.92743e-06
-0.000143769
-2.28536e-05
-0.000107917
-1.04522e-05
1.80835e-05
6.02617e-05
-0.000138822
-9.23853e-05
0.000152139
1.45982e-05
-2.22458e-06
-0.000133827
3.11838e-05
0.000174934
-0.000140695
4.40467e-05
0.00010949
1.24569e-05
1.1242e-05
4.49256e-05
-5.29434e-05
0.000231723
-2.22612e-05
-9.33635e-05
0.000245704
-7.49622e-05
-8.86682e-05
5.34003e-05
-7.30834e-05
-0.000121136
-5.40295e-06
5.6339e-05
4.6947e-05
5.25912e-05
-0.00018287
3.1637e-05
0.000132411
2.02394e-05
-2.27521e-05
7.14369e-05
4.00866e-05
-8.18291e-05
0.000120199
-6.55196e-05
-9.7468e-05
-0.000200756
6.12824e-05
-0.000109643
-5.03773e-05
-2.82389e-05
-0.000101434
0.000104433
-0.000138938
-2.86556e-05
-5.0646e-05
0.000152649
9.14529e-05
-3.90531e-05
5.15941e-05
-5.58503e-05
-5.38848e-05
2.62897e-05
1.3908e-05
-2.47224e-05
8.19517e-06
0.000172758
8.74329e-05
5.10528e-05
-3.54997e-06
-3.44842e-05
-1.80413e-05
7.54581e-06
1.20102e-05
5.20103e-05
-2.85404e-06
-5.18713e-05
-9.52976e-05
-0.000105234
-0.000110041
2.18026e-05
3.48192e-05
0.000154793
2.51783e-06
-5.76772e-05
4.61466e-05
0.000100385
-2.64286e-06
0.000106758
-6.93529e-05
-9.20438e-05
-6.40855e-05
0.000164977
-1.6533e-05
4.74139e-05
9.33395e-05
9.66748e-05
-0.000120074
0.000135741
5.05616e-05
-8.3712e-05
-1.61682e-05
-9.58424e-06
-9.009e-05
-0.000177549
-0.000125192
0.000151973
5.40133e-05
-1.54844e-06
0.000102385
4.60191e-05
8.1775e-05
4.21141e-05
-8.27406e-05
0.000145682
0.000197373
7.48761e-05
4.08702e-05
8.10262e-05
0.000114894
2.92761e-05
0.000197722
-9.18031e-05
-7.27673e-05
4.84622e-05
-9.96913e-05
8.17612e-05
-0.00011675
4.295e-05
6.24848e-05
-0.000103587
-9.87321e-05
-7.39211e-05
5.16011e-05
-8.09447e-05
1.62569e-05
2.33173e-05
4.82345e-05
-0.000157978
-0.000192712
9.98774e-05
2.29483e-05
-6.43472e-05
0.000144888
-6.29543e-05
0.00015078
6.26454e-05
-0.000133767
0.000120084
0.000214486
-9.09847e-05
-6.51145e-05
-1.98989e-05
-3.41544e-05
-3.94926e-05
0.000144681
-0.000220059
-0.000157107
-1.34454e-05
-4.96279e-07
-1.05922e-05
-9.4123e-06
-6.45741e-05
6.54632e-05
-5.09829e-05
-0.000104832
-4.75774e-05
3.00863e-05
9.56584e-05
-8.03836e-06
-0.000102466
2.95998e-05
0.000208647
3.66988e-06
-0.000137474
-0.000170326
2.64451e-05
-5.81127e-05
-5.98184e-05
0.000100215
-8.67278e-05
-6.22135e-05
6.53617e-05
-6.13454e-05
-3.16416e-05
5.52364e-05
0.00011893
8.26946e-05
-3.62513e-05
2.27441e-05
0.000136558
-8.09821e-05
-7.64558e-05
-0.00017463
0.000197583
1.44662e-05
-4.6087e-05
3.89345e-05
8.35228e-05
9.50031e-06
8.54454e-06
1.62311e-05
-8.5184e-05
-3.88564e-05
0.00018062
7.04535e-05
-7.35068e-05
-4.85106e-05
-2.93436e-05
0.000130587
4.22433e-05
-8.16491e-06
-3.58776e-05
-6.39819e-06
-5.11915e-05
1.6435e-05
1.68307e-05
-3.66988e-05
-5.18651e-05
-4.76935e-05
-3.99002e-05
2.91066e-05
9.92295e-05
2.00608e-05
-3.37139e-05
-1.72015e-06
-2.26873e-05
1.6426e-05
9.88318e-05
0.000127966
-1.3815e-05
-2.08287e-05
-4.41741e-05
0.000184653
1.18131e-05
6.53248e-05
2.60456e-05
5.20155e-05
3.70347e-05
1.38333e-05
2.10844e-05
9.26526e-06
7.38627e-05
-1.95384e-05
5.56645e-05
1.45788e-05
-7.58846e-05
-1.19581e-05
-6.24282e-05
-3.15113e-06
6.63353e-05
6.89381e-05
0.000146267
0.00012043
7.05373e-05
0.000104193
-8.43825e-06
-3.91265e-05
2.67462e-05
-0.000164057
0.00011124
6.58208e-05
2.61806e-05
-3.21972e-05
-3.73246e-05
0.000155973
-0.000140875
-9.01521e-05
3.97182e-05
3.27686e-06
7.5873e-05
-8.44116e-05
-0.000110029
0.000122675
-8.45199e-06
4.96804e-05
9.83065e-05
-6.75534e-05
0.000191417
3.42843e-06
-0.000105854
-1.16994e-05
-8.15906e-05
0.000142664
-4.43956e-05
-3.99929e-05
-6.26261e-05
0.000193661
1.89823e-05
-2.88044e-05
9.42266e-07
-3.95074e-05
2.02558e-05
-7.89653e-05
-0.000255235
-1.39992e-05
-3.16463e-06
-1.58173e-05
-8.82924e-05
5.19608e-05
0.000116314
2.31708e-05
6.68386e-05
0.000158016
-1.41205e-05
-2.72085e-05
-1.82048e-05
0.000146546
-8.13503e-05
-2.95331e-05
-7.67873e-05
-7.66336e-05
-7.82493e-05
2.45698e-05
-6.59362e-05
-2.93471e-06
-9.57865e-07
1.9766e-05
-7.21847e-05
5.31875e-05
-0.000160706
-9.33266e-05
3.74152e-05
2.26689e-05
1.894e-05
1.92159e-05
5.50936e-05
-4.98836e-05
-7.44958e-05
-1.11632e-05
9.84835e-05
0.00014766
-0.000198725
-3.09513e-05
0.000162818
-0.000123822
3.32866e-05
-7.6644e-05
-3.43544e-05
3.23751e-06
-2.98552e-05
9.91569e-05
9.39297e-06
-9.20044e-05
3.50624e-05
-2.16081e-05
-6.36507e-05
-5.90244e-05
0.000105506
-7.15541e-05
-8.45914e-05
-5.8603e-05
-0.000127053
-2.46705e-05
2.8081e-05
-9.18816e-05
3.1278e-05
4.60732e-05
-0.000110597
0.000260176
-7.10052e-05
-3.52159e-05
-0.000107319
-0.000124028
6.93989e-05
3.07243e-06
-8.26539e-05
-3.37386e-05
-1.13873e-05
1.63387e-05
8.73875e-05
7.81734e-05
0.000107563
-0.000127282
-9.80806e-05
-4.5856e-07
0.000158628
0.000105929
-4.17405e-05
8.99982e-05
4.17269e-05
-4.82991e-05
-4.89533e-05
-3.98661e-05
2.03867e-05
1.98842e-05
3.61935e-06
7.80544e-05
4.44902e-05
-3.19188e-05
5.51352e-05
0.000242517
5.40467e-05
-4.12258e-05
2.5282e-05
0.000117402
8.93956e-05
8.26136e-05
2.81301e-05
3.50359e-05
-6.377e-05
-6.3951e-05
6.2739e-05
-0.000152446
-1.13784e-06
-2.272e-05
-1.54842e-05
0.000110537
-6.99449e-05
-8.00905e-05
-2.63187e-05
-2.58388e-05
-5.09612e-05
2.92761e-06
0.000155877
1.59875e-05
-0.000170131
1.99827e-05
9.48024e-05
-5.10295e-06
-7.48899e-05
-1.87601e-05
2.48528e-05
-1.29322e-05
-9.22964e-05
-0.000103484
-1.77339e-05
8.5633e-05
4.82553e-06
7.78623e-05
6.99451e-05
9.892e-05
-8.50984e-06
6.27716e-05
0.000150267
-1.94843e-05
2.82023e-05
0.000113533
8.13805e-05
1.15556e-05
-5.14018e-05
-9.96131e-05
-5.75787e-05
4.71714e-05
-5.30521e-05
-4.32176e-05
-6.77939e-05
4.12848e-05
-9.10638e-05
6.18801e-05
6.52315e-05
6.52678e-05
5.15906e-06
-5.76838e-06
2.65064e-05
1.75212e-05
-2.9167e-05
-4.36951e-05
-0.000154529
8.97492e-06
6.36238e-05
4.35705e-05
-2.19676e-05
0.000210105
7.45754e-05
-4.45615e-06
-0.000122844
-3.52766e-05
5.53892e-06
-7.65501e-05
-3.13062e-05
3.14009e-05
2.14133e-05
-8.47507e-05
2.71522e-05
6.02482e-05
-3.40596e-05
7.38758e-05
-0.000176201
-2.79957e-05
8.82675e-05
1.64484e-05
5.8884e-06
3.57244e-06
-3.14652e-05
-1.15144e-05
-5.1216e-05
-9.14384e-06
6.9303e-05
-0.000120146
-6.19588e-05
-0.000180096
-5.36112e-05
-3.3383e-05
-4.43168e-05
4.06438e-05
-3.09478e-05
2.72971e-06
-0.000112021
-1.64174e-05
2.03163e-05
-4.40299e-05
-2.57823e-05
3.99636e-05
0.000121292
3.23209e-05
5.96513e-05
-1.47505e-05
-6.01681e-05
4.84301e-05
1.42208e-05
-7.19543e-05
-0.000135361
-8.81522e-05
5.72081e-05
-0.000257029
-4.89329e-05
-1.12532e-05
-1.15586e-05
4.16457e-05
-6.80684e-05
4.9239e-06
-0.000124365
-3.60445e-06
2.33423e-05
7.03742e-05
-0.00019878
-8.07079e-05
4.55389e-05
7.08023e-05
-4.57253e-05
-6.47032e-05
-6.94005e-05
-6.39767e-05
1.10836e-05
-4.63929e-05
-7.75255e-05
-3.60536e-05
9.71137e-07
0.000149308
0.000137998
-4.41726e-06
8.29063e-05
4.95281e-05
-0.000144225
1.63915e-05
-3.55236e-05
6.48219e-05
1.89012e-06
0.000168284
-8.79588e-06
-3.38807e-05
0.000109894
-1.95578e-06
0.000165093
-0.000179033
-8.3408e-05
-5.9345e-05
-6.83009e-07
4.5175e-06
6.39469e-05
-2.36783e-05
-0.00012113
6.16445e-05
-7.87756e-05
0.000165149
-0.000123268
3.97475e-05
2.03608e-05
4.4324e-06
1.45121e-05
-8.26013e-06
-2.0706e-05
2.19857e-05
-8.95652e-05
6.0228e-05
-2.49434e-05
-7.60423e-05
-6.80326e-05
5.89564e-05
0.000267993
-0.000112582
-1.04004e-05
7.36862e-06
1.91871e-05
5.18595e-05
-7.0076e-05
0.000121264
-0.000105452
0.000108629
-7.97338e-05
-1.71884e-05
-1.90078e-05
-1.93929e-05
-1.56758e-05
-2.52919e-05
-0.000103111
-7.24377e-05
0.000262482
-0.000102663
-0.000103024
1.9232e-05
-0.000202838
8.1968e-06
0.00018502
2.56619e-05
7.23116e-05
-0.00010479
2.65167e-05
7.45207e-05
-1.07219e-06
-0.000146439
0.000100236
-2.90819e-05
-7.87382e-05
-0.00010495
1.07568e-07
3.18632e-05
0.000109712
-4.62681e-05
9.09276e-05
-1.25874e-05
3.82564e-06
-0.000166298
-1.22236e-05
6.18631e-06
-0.000137079
-2.45576e-05
4.4391e-05
-1.99067e-05
-0.000166344
-6.95765e-05
5.20749e-06
-0.000114649
4.21677e-05
-0.000100302
0.00013376
7.73877e-05
-6.9953e-05
-0.0001676
-6.49996e-05
1.83523e-05
-0.000111044
7.62399e-05
2.50223e-05
5.2396e-05
-0.00021695
-6.12602e-05
0.000103142
-2.96246e-05
-0.000132148
2.72098e-06
-1.50227e-05
-0.000130608
-8.70994e-05
1.59123e-05
-9.50263e-06
-3.49692e-05
-2.24984e-06
-5.24877e-05
-5.48816e-05
-9.29559e-05
-5.93706e-06
-8.83393e-05
0.000105005
2.63753e-05
1.03571e-05
7.36685e-05
6.74935e-05
8.25339e-05
-3.58397e-05
0.000159749
-1.65324e-05
2.60957e-05
-2.92419e-05
6.76583e-06
-6.6252e-05
0.000158025
2.30015e-05
-2.87918e-06
-3.91933e-05
-0.00012003
8.84046e-05
6.80864e-05
9.72316e-05
-9.19821e-05
-6.47339e-05
-3.29844e-05
-2.19548e-06
-4.04863e-05
-2.73001e-05
-9.19277e-05
-0.000112681
0.000137598
5.88992e-05
4.67231e-05
-9.23127e-06
-1.62455e-05
8.43881e-05
0.000130809
4.93786e-05
6.31093e-05
2.42756e-05
-5.60092e-05
0.000105042
2.85311e-05
-0.000114929
2.32741e-05
-0.000146338
0.000119396
-1.37506e-05
-8.35743e-05
2.48041e-05
-2.23113e-05
2.26571e-05
8.18558e-05
-6.0366e-05
-6.30807e-05
-4.59875e-05
0.000100677
-0.000117368
9.4255e-05
7.94866e-05
7.58008e-05
-3.02874e-05
-2.8735e-05
4.45392e-05
-7.52922e-05
-0.000140119
-4.73561e-05
-3.38273e-05
-5.25883e-06
7.1309e-05
-3.1413e-05
0.000127212
-4.36557e-06
-4.40453e-05
-4.86219e-05
-3.85788e-05
-0.000106924
-0.000144465
8.43047e-05
-3.03425e-05
5.14465e-05
-1.68062e-05
-1.9719e-05
0.000118761
9.84934e-05
-4.61552e-06
-0.000189971
-5.08891e-05
8.61634e-05
-4.53113e-05
-0.000162922
1.1149e-05
6.13978e-05
-6.78719e-05
2.27875e-05
3.13135e-05
2.33965e-05
-8.63021e-05
5.4702e-05
0.000131374
-0.000175011
-7.78345e-05
-1.29113e-05
0.000155622
0.000180577
3.72275e-05
3.59891e-05
1.04727e-05
2.93576e-06
2.71834e-05
2.47462e-05
3.65686e-05
-2.00787e-05
2.02823e-05
1.60608e-05
-1.27272e-05
7.8553e-05
0.000118913
0.000147725
-0.000230839
-8.05683e-05
-7.98916e-05
-0.000106925
-1.11209e-05
-6.32663e-05
-5.16721e-06
7.13689e-05
6.76597e-05
-9.04805e-05
-3.82741e-05
1.96963e-05
-1.22784e-05
-7.19131e-05
-1.25805e-05
-6.34389e-05
-0.000145412
-0.000176415
-0.000112356
0.00015405
3.02157e-05
6.35753e-05
6.55928e-05
9.66574e-05
3.41004e-06
3.15101e-06
5.45648e-05
-0.000102667
-4.51297e-05
3.52632e-05
0.000107841
-8.93131e-05
-3.59943e-05
4.30633e-05
1.25025e-05
9.93541e-05
4.11693e-05
-5.04395e-05
-1.71891e-05
2.72956e-05
-3.20782e-06
3.25493e-05
-8.34047e-05
1.1602e-05
-2.69524e-05
-4.65774e-05
0.000134681
-7.84993e-05
8.47676e-05
-2.96553e-05
-0.000129638
7.57877e-05
8.47593e-05
6.30827e-05
0.000130917
-0.000131516
9.03418e-06
-5.85369e-05
4.01086e-06
3.321e-05
-6.12681e-05
0.000112475
7.98166e-05
7.5662e-05
-0.000128924
-0.000142292
0.000129165
-1.1581e-06
4.73652e-05
-0.00010214
-4.46057e-05
-1.40711e-05
0.000198582
-0.000143757
4.49177e-06
4.46825e-05
-9.70254e-05
0.000115113
0.000206432
-0.00010577
5.73987e-05
-2.91895e-05
-2.59378e-05
-0.000146064
0.00022969
7.76938e-05
0.000124363
-5.48332e-05
5.01021e-05
-1.11725e-05
-9.58372e-05
0.000152458
-4.28739e-05
-7.0804e-05
-7.21973e-05
0.000120141
4.52233e-05
-0.000136822
2.48719e-05
-0.000192725
7.40302e-05
4.65923e-05
1.51994e-05
-7.31794e-05
-1.70657e-05
5.79642e-05
1.62337e-05
-6.38374e-05
-3.59481e-05
4.72649e-05
0.00013609
-0.000109507
-1.3963e-05
4.51797e-05
3.6499e-05
8.12684e-05
2.99962e-05
1.25102e-05
3.95066e-05
-9.30389e-05
-7.00048e-05
-5.304e-06
5.90942e-05
-1.08469e-05
-5.59543e-05
0.000111194
2.82467e-05
1.94808e-05
5.21913e-05
-9.16929e-05
6.86437e-05
1.46339e-05
-6.61727e-05
-1.72328e-05
-0.00014275
-7.34066e-05
6.79833e-05
-2.10118e-06
0.000159382
-1.63813e-05
-9.94244e-05
-2.2855e-05
-0.000134633
-4.51363e-05
1.81234e-05
-3.20941e-05
-6.99412e-05
2.36229e-05
0.000101151
4.26782e-05
-6.29823e-05
0.000140538
-9.51114e-05
-2.55411e-05
7.4127e-05
-6.51786e-06
-2.05031e-05
-9.64366e-05
-0.000177672
-9.63567e-05
1.20603e-05
7.49459e-05
-3.76572e-05
8.87536e-05
-6.13587e-05
-0.000111213
-2.5055e-05
5.12241e-05
-9.52098e-05
4.36072e-05
-9.72205e-05
-0.000103558
-0.000127598
0.000110795
-4.9784e-05
-6.4016e-05
-9.16534e-05
-3.43609e-05
2.44058e-05
0.000102142
0.000105524
0.000143637
4.15074e-05
-0.000102551
0.000139261
-0.000161482
-4.9632e-05
6.54093e-05
3.16324e-05
-8.62788e-05
7.17624e-05
-0.000103128
3.7696e-05
-4.83913e-05
-0.000251728
1.57646e-05
-1.74114e-05
3.52999e-05
0.000115196
9.05435e-05
4.88454e-05
5.52825e-05
2.31247e-05
0.000113644
2.97778e-05
3.52925e-05
-7.36725e-05
2.65716e-05
-1.34807e-05
-4.88926e-05
3.84205e-05
1.02498e-05
7.93394e-05
-3.59219e-05
-0.000114288
-5.69748e-06
0.000131494
3.73055e-05
4.98793e-05
9.43472e-05
-7.30191e-05
-7.7982e-06
9.08774e-05
8.93977e-05
4.92907e-05
-9.5889e-06
7.61395e-05
-2.56959e-05
5.6487e-06
4.05124e-05
0.000112156
-8.90475e-05
-2.3348e-05
-5.87926e-05
-7.13018e-05
-8.87294e-06
-2.56184e-06
-3.19222e-06
-7.80014e-05
-0.000115228
-0.000124411
-0.000172683
-9.75779e-05
7.11298e-08
1.59154e-05
8.76139e-05
-1.44016e-05
0.000101417
-0.00015424
-2.9641e-05
4.07886e-05
5.17983e-05
5.7443e-05
-7.39963e-05
8.92733e-05
2.54326e-05
-1.53251e-05
0.000112699
-2.98501e-05
7.49433e-05
4.30702e-05
-7.09683e-05
0.000130687
7.01698e-05
4.80034e-05
0.000151389
1.02133e-05
5.86376e-05
6.00037e-05
0.000103777
-3.2044e-05
5.26385e-05
4.48007e-05
-5.86349e-06
-7.26352e-05
6.43065e-05
-1.63474e-05
-8.44094e-05
5.48103e-05
1.47347e-05
-2.84705e-06
-7.54718e-05
-0.00011208
0.000200246
-7.87328e-05
4.77394e-05
-2.72159e-05
1.22431e-05
-2.26428e-06
-1.73904e-05
-0.000212909
-5.07617e-06
8.23707e-05
0.000208803
-0.000138473
-0.000123944
2.11034e-05
-7.54828e-05
6.29888e-05
0.00014826
-3.84193e-05
8.00546e-05
2.88668e-05
2.92258e-05
6.49826e-05
-0.000174318
-8.47564e-05
-4.75368e-05
-2.77094e-05
7.34066e-05
7.8021e-05
-8.18544e-05
6.27243e-05
-4.36327e-05
-6.34266e-05
-3.59414e-05
-0.000109774
0.000157965
2.24811e-05
-1.44951e-05
-4.43601e-05
-4.53751e-05
7.55846e-05
0.000108236
1.95422e-05
-6.34056e-06
-4.30224e-06
5.28554e-05
-6.34219e-06
-2.4617e-05
0.000130905
-4.3963e-05
9.10255e-05
1.34606e-05
-0.000107168
-9.51579e-05
3.87576e-05
-4.86574e-05
-7.27363e-06
3.46083e-05
6.02263e-05
3.41294e-05
4.73718e-05
-0.00010217
2.27795e-05
-3.94467e-05
6.77218e-05
-2.18644e-05
2.68023e-06
-3.11221e-05
3.93437e-06
0.000142323
7.76317e-05
-2.52419e-05
4.55065e-05
-0.000147887
0.000202063
6.84991e-05
-1.19123e-05
4.40022e-05
9.66876e-06
3.96487e-05
-6.81391e-05
-8.07068e-05
-6.44855e-05
0.000106952
-8.83584e-05
1.84549e-05
-1.58998e-05
-2.02731e-05
7.48025e-05
-0.000140976
1.59711e-05
4.05576e-05
-2.92287e-05
-1.49359e-05
7.88692e-05
5.84773e-05
5.65561e-05
3.74053e-05
-0.000232967
-0.000134403
5.86436e-05
9.18242e-05
9.59665e-05
-0.000152646
-8.67671e-05
4.1289e-05
4.68397e-06
7.2985e-05
-4.9588e-05
3.38166e-05
0.000126922
-2.4545e-05
-2.14111e-06
0.00010482
0.000163846
9.88231e-05
-2.90341e-05
-0.000216757
-6.82983e-05
8.94396e-06
-0.000127025
-5.51306e-05
0.000112881
4.61121e-06
-0.000165124
-1.8168e-05
-3.7509e-05
4.48812e-05
7.28496e-05
-8.79684e-05
2.19538e-05
-0.000137093
-1.51397e-05
8.69381e-05
9.29267e-05
2.13822e-05
3.00085e-05
5.83349e-05
-1.46065e-05
2.34912e-05
5.0308e-05
5.41604e-05
-1.14646e-06
5.61939e-05
1.61212e-05
-0.000120058
-4.49213e-05
-0.000126723
0.000117592
5.99215e-05
1.722e-05
4.66011e-07
-0.000163914
3.86909e-05
0.000254731
-0.00012845
-5.10529e-05
-0.00013722
2.22938e-05
-8.90926e-06
3.36568e-06
-2.06629e-05
1.01624e-05
2.66556e-06
-4.26853e-05
1.96714e-05
-1.73921e-05
0.000107581
-0.000127315
3.86755e-06
0.000101047
1.37195e-05
3.66686e-05
0.000150528
-9.64478e-05
-0.000146304
9.80403e-06
2.98335e-05
1.62494e-05
2.00686e-05
7.56142e-05
-7.17714e-05
-7.76362e-05
-6.95582e-05
-8.91429e-05
6.86914e-05
5.58638e-05
1.96532e-06
-4.16988e-06
5.66515e-05
2.43026e-05
-0.000182893
-2.38564e-05
6.19888e-06
1.65037e-05
-8.70421e-05
-0.000111313
0.000170829
5.42786e-06
-1.9505e-05
-2.67539e-05
-3.42021e-05
-2.84729e-05
4.7881e-05
-4.59171e-05
-8.56293e-06
-1.45149e-05
-7.29966e-05
6.93125e-05
0.000210306
6.04627e-05
6.61365e-05
4.82077e-05
-3.20777e-05
1.12364e-05
1.70141e-05
4.75872e-05
0.000140151
9.45542e-05
8.5914e-05
-2.02958e-06
-3.96965e-05
2.86045e-05
6.87758e-05
-7.65003e-05
0.000118311
3.4502e-06
-2.63364e-05
-5.38861e-05
-0.000101591
0.000152059
4.4887e-05
-7.74409e-05
-7.34262e-05
3.90627e-05
-4.41293e-05
0.000119575
-0.000213571
6.10278e-05
-7.65766e-05
-1.65079e-05
-2.97099e-05
-9.61004e-05
-1.77735e-05
-3.47192e-05
-2.56229e-05
-9.15909e-06
1.26812e-05
-3.77758e-05
1.88075e-05
-4.05657e-05
0.000186613
-0.000126848
-5.97629e-05
0.000112884
4.54313e-05
-0.000116223
-0.000119094
2.08684e-05
-2.27952e-05
2.09891e-05
8.49607e-05
0.000228978
6.29339e-05
-0.000156541
-7.59625e-05
0.000182505
-1.15702e-05
-1.92991e-05
2.13648e-05
5.85582e-05
3.99888e-05
0.000101
-9.63449e-05
2.91613e-05
-0.000107931
8.54707e-05
8.96157e-05
2.39725e-05
-3.82365e-05
7.21293e-05
-0.000184608
-3.76678e-05
8.42178e-05
5.16296e-05
-3.65579e-05
1.59947e-05
-7.104e-05
-3.57021e-05
-0.000126917
-5.32963e-05
3.00377e-05
-1.86921e-05
7.56627e-05
0.000190711
0.000138493
-6.93429e-05
2.22421e-05
-7.69981e-05
-0.000117166
7.08876e-05
-2.06904e-05
-2.64682e-06
3.19921e-06
0.000102094
-7.93348e-05
-5.17047e-05
-5.32136e-05
-0.000174928
0.000104791
9.23215e-05
0.000171784
-8.97511e-05
7.3493e-06
5.49322e-05
-5.80435e-05
2.86403e-05
-3.8368e-05
-7.24499e-06
-0.000121777
6.94389e-05
1.45562e-05
2.80166e-05
-7.27217e-05
4.83238e-05
0.000197961
1.1659e-06
2.71879e-05
-7.12695e-05
1.57526e-05
3.9069e-07
-4.69905e-05
-1.80282e-05
3.07681e-05
6.39046e-05
2.66227e-05
-6.96512e-05
0.000149983
4.73729e-05
1.7149e-05
-0.000155204
8.70379e-05
3.9076e-06
6.16652e-06
4.7133e-05
-0.000104024
6.58584e-05
4.85731e-05
-4.44683e-05
-8.76547e-05
0.000148638
-5.88514e-05
-0.000142511
-3.66853e-05
-5.05283e-05
1.36397e-05
0.000159389
-6.739e-05
5.43548e-05
9.97781e-05
-0.00010967
6.43746e-05
0.000125478
2.35192e-05
-5.3806e-05
3.14643e-05
-6.52927e-06
-1.17305e-05
2.35037e-05
-5.19282e-06
-0.000136092
1.32452e-05
-0.000140372
0.000122441
0.000122876
-5.79883e-05
-4.48443e-06
0.000119195
0.000143163
4.57335e-05
-0.000165907
2.14145e-05
-5.44429e-05
7.98958e-05
0.000109121
-1.0727e-05
-4.15482e-05
0.000151177
0.000112813
1.21205e-05
4.64484e-05
4.01946e-05
4.27569e-05
-8.46738e-05
-0.000131299
2.4467e-06
-3.49313e-05
0.000111217
3.10987e-05
-4.31187e-05
2.34358e-05
-0.000112832
0.000223676
6.09996e-05
8.93378e-05
5.26889e-05
4.09505e-05
-1.28476e-05
-0.000151161
-0.000141639
-4.6179e-05
-3.7179e-05
5.3579e-05
1.59352e-05
-4.90997e-05
0.000279835
0.000101548
-0.000146037
2.44861e-05
6.34787e-05
-3.03192e-06
7.40937e-06
0.000204008
0.000192649
-3.83407e-05
0.000136977
1.16344e-05
9.30423e-05
9.5222e-05
-7.84707e-05
-0.000191527
-9.71002e-05
-4.53102e-05
-2.43494e-06
6.44906e-05
1.04251e-05
-0.000113477
-9.57553e-05
3.63349e-05
0.000115333
-3.07804e-05
-2.46606e-05
-3.27071e-05
-1.23025e-05
4.8558e-05
-3.72749e-05
-8.89199e-05
3.35656e-05
0.000156592
9.7713e-05
8.26647e-05
5.6556e-05
2.3555e-05
-4.60278e-05
-6.51105e-05
-0.000111457
-2.451e-05
0.000154133
5.27438e-05
3.60573e-05
-0.000108464
-3.67574e-05
2.52416e-05
5.57916e-05
-2.68972e-05
3.72017e-05
-7.59971e-05
-6.44341e-05
-0.000100475
8.9963e-05
0.000150608
3.91481e-06
-7.88296e-05
0.000109188
-8.66756e-05
-6.53849e-05
3.16693e-05
-5.07614e-05
-0.000139731
6.48983e-05
-7.0862e-07
7.95739e-05
-7.32532e-06
2.92104e-05
-0.000103153
7.43358e-06
6.34533e-06
-0.000145233
-4.0548e-05
-3.02624e-05
4.60073e-05
5.43334e-05
-5.65292e-05
-5.59619e-05
-1.35122e-05
-4.21379e-05
0.000189713
6.75305e-05
0.000224917
0.000159079
-0.00016675
7.20597e-05
-1.84843e-05
-7.65696e-05
-4.50772e-06
3.11063e-05
7.78781e-05
0.000123926
-2.22224e-05
7.40625e-05
-2.96466e-05
-2.69375e-05
1.37417e-05
2.27568e-05
7.62499e-05
-7.49865e-05
-8.4702e-05
8.84018e-05
-6.36501e-05
0.000184202
-2.86819e-05
-6.67981e-05
-8.08307e-06
-8.48221e-05
-2.58267e-05
3.17555e-05
0.000102243
-7.55814e-05
-0.000102639
7.90972e-06
2.10871e-05
-4.65047e-05
2.85048e-05
0.000111425
2.01811e-05
-7.68559e-05
8.69107e-05
3.74294e-05
-4.20883e-05
-7.59399e-05
-8.07714e-05
6.3017e-05
-1.98232e-05
-7.88214e-05
0.00017484
0.000213339
5.33172e-05
-0.000145707
-0.000115339
-0.000127809
-2.65557e-05
1.36314e-05
6.95743e-05
0.000130229
-2.3237e-05
0.000255344
-1.91394e-05
-0.000109383
1.14108e-05
2.38498e-05
-1.20199e-06
-3.98131e-05
-0.000132377
-1.09578e-05
-3.22536e-05
8.35881e-05
-2.11014e-06
0.000104509
-7.50418e-05
-5.23223e-05
4.15002e-05
7.51331e-05
-1.83538e-05
1.92289e-05
1.20758e-05
-2.11082e-05
-4.27687e-05
0.000104966
-0.00013951
-1.18245e-05
6.72105e-05
-2.85045e-05
-4.41504e-05
-1.19526e-05
3.92948e-05
-0.000122892
-3.37255e-05
-8.96128e-05
-4.42844e-05
5.60391e-05
7.96886e-05
-4.13728e-05
-0.000124197
4.54463e-05
-0.000194027
-2.17807e-05
0.000109911
4.07372e-06
-5.97062e-05
0.000106913
6.15541e-05
-6.79514e-05
0.000112221
6.82465e-05
-2.95629e-05
-0.000112468
0.000188718
1.751e-06
-0.000128487
0.000114145
1.32167e-05
-0.000125319
-0.000133594
3.2428e-05
0.000105176
4.90743e-05
-0.00023446
-4.81908e-05
0.00011039
0.000130659
-8.83625e-05
1.30828e-05
1.49126e-05
-2.68967e-05
-0.000114304
3.31603e-05
-2.88548e-05
0.0001098
2.75183e-05
-8.44074e-05
8.14544e-05
9.55735e-06
0.000112291
-5.34677e-05
-1.47215e-05
4.46265e-05
-6.9401e-06
-3.19906e-05
-6.33451e-06
-5.77727e-05
-8.57448e-05
-1.0822e-06
5.94463e-06
-9.14658e-05
-0.000112323
-4.93939e-05
-6.93905e-06
2.68919e-06
5.25219e-06
1.1427e-05
-0.000244549
-1.28914e-05
0.000132154
0.00015633
-1.83183e-05
-3.69715e-05
0.000153489
-0.000163222
1.5685e-05
1.5446e-06
-4.54707e-05
6.26433e-05
2.0197e-05
-1.03608e-05
9.07097e-05
-1.84064e-05
6.47922e-05
-6.80707e-05
8.59508e-05
-5.86163e-05
5.4765e-05
5.50915e-05
-0.000120282
3.95016e-05
8.6771e-05
-5.68343e-05
-9.00417e-05
-2.25682e-05
0.000158351
-0.000120893
-0.000177823
6.43937e-05
-4.49612e-05
-0.000107032
1.58196e-05
4.34439e-06
5.72903e-06
-3.49504e-05
8.61989e-05
0.000132418
0.000157213
1.51035e-05
-5.63087e-05
4.16343e-05
-1.44838e-05
-4.13624e-07
9.34558e-05
-4.89237e-05
-1.6138e-05
4.22725e-05
-4.32897e-05
1.75054e-06
-4.51971e-06
-1.10461e-05
4.5137e-05
-2.34272e-05
-4.65685e-05
3.11778e-05
-7.76991e-05
-1.99261e-05
4.71098e-05
-0.000112348
-4.42131e-05
-1.95286e-05
6.68131e-05
0.000115403
4.68548e-05
-0.00012177
-5.01976e-05
3.78627e-05
-8.56293e-06
-2.29193e-05
-1.1713e-05
3.93114e-05
8.78535e-05
-1.03613e-05
0.000102686
-1.11734e-05
6.97142e-06
-5.82029e-05
3.68927e-05
-0.000118619
-6.63253e-05
0.000132387
-2.31799e-05
2.29653e-05
-6.90189e-05
-0.000175529
-3.55806e-05
0.000147137
-4.90521e-05
0.000143381
-1.51236e-05
3.0846e-05
-6.46338e-05
1.30991e-05
0.00013949
4.37873e-05
-5.04536e-05
6.71399e-05
2.81387e-05
-2.25246e-05
-3.23231e-05
-4.75347e-06
6.78033e-05
-3.82984e-05
0.000136365
-6.50074e-05
8.93539e-05
-4.46959e-05
-1.62099e-05
-6.62487e-05
4.87972e-05
-3.16142e-05
-4.44144e-05
2.63798e-05
-8.48817e-05
-3.49102e-05
6.317e-05
-5.47867e-05
-3.71312e-05
-0.000105501
-0.000124639
6.52433e-05
-2.83795e-05
-0.000100272
-0.000124129
3.31517e-05
-2.70839e-05
-3.20111e-05
0.000101063
7.67279e-05
-5.90211e-05
6.44901e-05
-1.05965e-05
2.78597e-05
0.000210364
-0.000169444
-0.00017597
-8.61831e-05
-8.32381e-06
4.51987e-05
-0.00015107
0.000118539
6.79358e-05
-7.41682e-06
3.28094e-05
0.000124189
6.56473e-05
1.24335e-05
6.04801e-06
-0.000105918
-9.86054e-05
-5.6349e-05
-1.48567e-05
0.00016502
4.74608e-05
5.20684e-05
-8.22595e-05
-5.40651e-05
-7.04895e-05
5.76644e-05
-6.85437e-05
1.33207e-05
6.05894e-05
3.9797e-05
4.26534e-06
7.87333e-05
-1.34173e-05
-6.44019e-05
3.7759e-05
0.000159195
5.14125e-06
-0.000127491
1.32371e-05
6.11994e-05
0.000104629
-3.84401e-05
-2.61618e-05
-5.48614e-05
-7.67923e-05
-6.29462e-05