# vtk DataFile Version 1.0
Net Charge Density
ASCII
DATASET STRUCTURED_POINTS
DIMENSIONS 256 128 1
ORIGIN 0 0 0
SPACING 0.15625 0.15625 1
POINT_DATA 32768
SCALARS rhonet float
LOOKUP_TABLE default
-0.000160508
-0.000167887
5.6081e-05
0.000183647
3.23751e-07
0.000191266
3.67274e-05
-3.75273e-05
0.00021227
0.0002039
2.13556e-05
0.000277439
0.000125304
-0.000187492
-0.000210161
0.0002424
0.000138128
-9.47006e-05
-2.65249e-05
2.83131e-05
4.39107e-06
0.000102251
-7.42973e-05
7.15232e-05
7.7399e-05
3.35053e-05
4.71569e-05
8.44288e-05
0.000278664
2.65085e-05
-0.000173604
-0.000110281
0.000118656
0.000200905
4.51492e-05
0.000109908
0.000103996
-3.99336e-05
4.40353e-06
4.75892e-05
0.000189624
0.000126692
9.89703e-05
0.000103345
0.000114227
-2.90689e-06
4.20579e-05
8.41919e-05
6.18172e-05
0.000108832
0.0001779
1.32741e-05
0.000113021
0.000157621
-0.000113343
3.60134e-05
-4.08937e-05
0.000171977
0.00010797
0.000130789
-0.000190217
0.000311077
0.000158332
-8.29105e-05
-7.23316e-05
7.54278e-06
-6.37932e-05
0.000161388
3.0456e-05
-7.61668e-05
-0.000109126
-0.000103431
-1.20961e-05
0.000276134
3.09944e-05
-1.12002e-05
5.46741e-05
7.92573e-05
0.000142198
4.58728e-05
-0.000158413
-9.78309e-05
0.000276488
0.000167733
0.000162497
0.00016097
0.00017852
-0.000174077
0.000224576
0.000307085
5.20064e-05
-3.99831e-05
4.95582e-05
1.10044e-05
4.11714e-06
0.000220359
-0.000114336
4.7289e-05
-5.6203e-06
0.000452814
0.000172436
-2.67719e-05
9.79374e-05
3.58969e-05
7.08608e-06
0.000123095
8.99145e-06
6.49851e-05
-2.65439e-05
-0.000123008
0.000206296
0.000124018
-8.90399e-05
-4.55161e-06
-0.000258863
-0.000133407
0.000226482
9.87554e-05
4.0598e-05
-0.000188808
1.0295e-05
6.32337e-05
9.08342e-06
0.000104588
1.81911e-06
-1.46814e-05
6.60059e-05
7.13166e-05
0.000134923
2.74529e-05
4.08298e-05
0.000103728
0.000193163
-0.000114021
5.0651e-05
8.81549e-05
0.000340937
1.59614e-05
3.25541e-05
-5.72396e-05
-3.67661e-05
6.6094e-05
-5.52426e-05
1.08e-05
6.25122e-05
3.85789e-05
0.000120595
0.000104685
2.3759e-05
0.000167847
1.81069e-05
-6.36711e-05
0.000139116
0.000219077
0.000207035
1.71468e-05
7.9299e-05
6.38415e-05
0.000140138
4.64822e-05
9.89322e-05
6.25268e-05
-5.54814e-05
2.66712e-05
5.96547e-05
-0.00016022
0.000127042
0.000207388
0.000207519
3.51339e-05
-0.000108901
0.000213974
-4.35405e-05
-8.89804e-05
0.00018382
-1.75801e-05
0.000217745
7.52825e-05
-0.000177967
0.000105127
0.000114518
0.000110562
7.9606e-06
-0.000129827
6.656e-05
0.000104308
0.000116109
0.000127969
0.000213432
0.000200225
0.000215853
0.000170253
-3.37207e-05
-4.79934e-05
-9.89303e-05
0.00019235
0.000265686
8.56228e-05
0.00019161
-2.05417e-05
-7.00733e-05
0.000117833
8.1297e-05
8.54149e-05
-0.000127657
0.000103546
6.02584e-05
1.86706e-05
0.000116816
1.5135e-05
3.84685e-05
0.000158325
-8.71774e-05
0.000112816
-8.92766e-06
-0.000100142
0.000109017
7.73717e-05
0.000138823
-2.98256e-06
-0.000113571
-4.56622e-05
0.000148636
0.000132605
-7.43921e-05
3.06795e-05
-8.25268e-07
0.000137333
-0.000122041
-6.48991e-05
0.000285539
-2.56011e-05
-0.00024254
0.000209254
0.000148038
9.20483e-05
9.17658e-05
1.05812e-05
8.32269e-05
0.000169142
-3.18151e-06
-8.13345e-05
0.00013091
0.000105936
0.000168363
7.53646e-05
2.33166e-05
0.000107444
6.23068e-05
-1.32963e-05
-0.000107693
-5.85312e-05
1.68635e-05
-3.38769e-08
-6.82967e-05
0.000102664
7.69006e-05
-6.83055e-06
-6.95954e-06
-0.000112168
1.02068e-05
-9.72911e-05
-0.000187179
-1.40863e-05
0.000140192
-9.87943e-05
-3.17502e-05
0.000165464
-6.70919e-05
-9.36713e-05
-0.000199353
-2.37061e-05
2.02262e-05
-8.97561e-05
3.73321e-05
6.2326e-05
-1.73305e-05
-0.000171351
2.68652e-06
-0.000119967
-4.71565e-05
-0.000214929
7.76887e-05
-4.00143e-06
3.77957e-05
-1.077e-05
-6.67138e-05
0.000133747
-5.03161e-05
-1.0443e-05
1.48499e-06
-1.24983e-05
-2.2774e-05
-0.000138423
-6.58626e-05
4.47209e-05
-5.80359e-05
-9.40575e-05
-3.07194e-05
8.05045e-05
-0.000123109
-0.000161083
0.00010445
3.72161e-05
-2.5856e-05
2.17513e-05
-7.83055e-05
3.00581e-05
-5.05196e-06
1.30711e-05
-0.000131184
-3.99875e-05
7.61974e-05
2.92144e-06
-0.000117996
7.76043e-05
-2.90717e-05
-0.000105776
-1.44533e-05
-7.09167e-06
-0.000112825
3.16212e-05
1.04425e-05
3.96979e-05
0.000106281
-9.8176e-05
1.68304e-05
-1.05785e-05
-3.66133e-05
8.44796e-05
-5.25964e-07
-3.02482e-06
-1.95535e-05
-7.37966e-05
4.66395e-05
-1.91091e-05
-0.000144662
-8.84358e-05
5.42478e-05
-5.36095e-05
-5.95627e-06
-7.20841e-05
1.53877e-05
-0.000200124
4.92622e-05
-0.000137203
-0.000188083
-5.28886e-05
-6.37092e-05
-3.94825e-05
4.17455e-05
2.03128e-05
-0.000116687
1.7575e-05
-0.000131394
5.92989e-05
-0.000127924
-6.11966e-05
-8.92165e-05
0.000162308
2.10091e-05
-0.000105668
-6.94862e-05
9.11538e-05
-8.38161e-05
-0.00016366
-7.83503e-05
-2.15557e-05
-0.000216849
0.000122217
-1.26553e-05
-9.02942e-05
4.08958e-05
-5.05507e-05
-5.89354e-05
-0.000120339
-2.08741e-05
-8.70143e-05
9.62104e-05
0.000130218
-6.4203e-05
6.57898e-05
6.94017e-05
-8.38812e-05
0.000101958
-0.00012451
8.07224e-07
8.58213e-05
-5.1273e-05
-7.21155e-05
-6.38514e-05
4.07832e-05
-7.47512e-05
-0.000144528
-6.70055e-05
-8.51309e-05
7.99152e-05
0.000160422
-0.000135869
4.28001e-06
-0.00018074
-5.8295e-06
4.04649e-05
7.69626e-05
-5.9457e-05
0.00021604
-5.34817e-05
-7.12108e-05
-5.06766e-05
-7.57746e-05
-0.000136147
-0.000119521
4.35996e-05
-1.93274e-05
-4.95415e-05
-2.71808e-05
3.53111e-06
-9.69018e-06
4.42053e-05
-6.57939e-05
0.000110603
-2.85313e-05
-9.8076e-05
1.92082e-05
-0.000130355
-8.00625e-05
-4.17314e-06
0.000262945
-5.91141e-05
3.79592e-05
-7.76545e-05
-0.000111951
7.47034e-05
-5.15673e-06
-6.31068e-05
-4.37003e-05
-4.74527e-05
-2.66884e-05
-5.26211e-05
-5.99542e-05
-9.11818e-05
-7.50319e-05
-5.52685e-05
-9.53225e-05
-3.66003e-05
-0.000154642
-7.85053e-05
-5.84512e-05
1.86081e-05
2.26422e-05
-4.95841e-05
-3.40934e-06
-0.000105194
-0.00013009
-7.68476e-05
-6.39443e-05
-5.1304e-05
2.85815e-05
-9.31065e-05
-4.411e-05
0.000130523
-0.00026051
3.75091e-05
7.6127e-05
2.54167e-05
-9.70555e-07
2.6988e-05
-4.4761e-05
4.44404e-05
3.65023e-05
-3.27192e-05
-4.19305e-06
-7.37035e-05
-9.19783e-05
-9.64105e-05
9.43097e-05
7.29751e-05
2.55211e-05
-2.45842e-05
-9.87587e-05
5.37117e-06
-2.16777e-05
5.18261e-05
6.29905e-05
-7.81007e-05
2.38195e-05
-3.90443e-05
9.9435e-06
-0.00018905
-3.68471e-05
1.28362e-05
-0.000117055
-0.000126709
4.63228e-05
0.000137057
-8.00279e-05
-2.98368e-05
1.84568e-05
-8.46677e-05
-1.46595e-05
-4.54603e-05
-3.53747e-05
-6.50842e-05
-0.000134402
-0.000147595
-0.000147703
3.65137e-05
1.0421e-05
7.94844e-05
-8.96724e-06
-0.000105636
3.5801e-05
-2.13946e-05
-2.16803e-05
2.64053e-06
6.06634e-05
-0.000139216
-9.21104e-05
0.000152121
1.44464e-05
-1.82586e-06
-0.000134098
3.14406e-05
0.000175387
-0.000140787
4.35972e-05
0.000109737
1.15682e-05
1.21093e-05
4.51951e-05
-5.26996e-05
0.000231781
-2.25082e-05
-9.27885e-05
0.000245795
-7.48935e-05
-8.77414e-05
5.21127e-05
-7.30169e-05
-0.000120797
-5.94079e-06
5.67554e-05
4.67738e-05
5.28092e-05
-0.000182569
3.17232e-05
0.000132472
2.0162e-05
-2.23627e-05
7.09801e-05
4.0996e-05
-8.26748e-05
0.000120102
-6.54482e-05
-9.73585e-05
-0.000201012
6.298e-05
-0.000111466
-5.06539e-05
-2.74514e-05
-0.000101947
0.000104405
-0.000139034
-2.86549e-05
-5.06293e-05
0.000154336
8.92157e-05
-3.85537e-05
5.12569e-05
-5.58931e-05
-5.39091e-05
2.63561e-05
1.37014e-05
-2.56447e-05
9.27143e-06
0.000172714
8.76101e-05
5.07936e-05
-5.67397e-06
-3.21927e-05
-1.78218e-05
7.81985e-06
1.20789e-05
5.21549e-05
-2.62074e-06
-5.14201e-05
-9.55341e-05
-0.000104937
-0.000110434
2.18421e-05
3.47995e-05
0.00015475
2.5453e-06
-5.76742e-05
4.59221e-05
0.000100692
-2.54728e-06
0.000106737
-6.94824e-05
-9.32753e-05
-6.31277e-05
0.000164966
-1.65991e-05
4.73615e-05
9.33973e-05
9.67536e-05
-0.00012002
0.000135729
5.06648e-05
-8.36562e-05
-1.59934e-05
-1.00029e-05
-9.02708e-05
-0.000177778
-0.000125124
0.000151658
5.36364e-05
-1.39675e-06
0.000102193
4.58856e-05
8.20248e-05
4.19657e-05
-8.27534e-05
0.000145589
0.000192897
7.97982e-05
4.0726e-05
8.11159e-05
0.000114979
2.93526e-05
0.00019763
-9.18864e-05
-7.28564e-05
4.85379e-05
-9.97568e-05
8.17496e-05
-0.000116727
4.28762e-05
6.25555e-05
-0.000103643
-9.86236e-05
-7.39656e-05
5.15612e-05
-8.09936e-05
1.61019e-05
2.3252e-05
4.82457e-05
-0.000158017
-0.000192727
9.99602e-05
2.29882e-05
-6.42703e-05
0.000144835
-6.29505e-05
0.000151018
6.26297e-05
-0.000133762
0.000120206
0.000214589
-9.08934e-05
-7.23477e-05
-1.27209e-05
-3.43041e-05
-3.95302e-05
0.000144631
-0.000219895
-0.000157218
-1.34504e-05
-3.53088e-07
-1.03695e-05
-9.45211e-06
-6.63047e-05
6.49337e-05
-4.86416e-05
-0.000104757
-4.75075e-05
3.00155e-05
9.57735e-05
-7.88493e-06
-0.000102398
2.96322e-05
0.000208725
3.52971e-06
-0.00013741
-0.000170358
2.64681e-05
-5.79141e-05
-5.98732e-05
0.000100311
-8.67487e-05
-6.22192e-05
6.44266e-05
-6.12803e-05
-3.07697e-05
5.52437e-05
0.000118779
8.26722e-05
-3.65321e-05
2.91541e-05
0.000130491
-8.08719e-05
-7.66078e-05
-0.00017488
0.000198737
1.33635e-05
-4.60433e-05
3.90777e-05
8.37287e-05
9.71195e-06
8.62207e-06
1.60654e-05
-8.53252e-05
-3.86775e-05
0.000180594
7.03849e-05
-7.35284e-05
-4.85948e-05
-2.94778e-05
0.000130442
4.21875e-05
-8.24686e-06
-3.56428e-05
-6.35837e-06
-5.12237e-05
1.64013e-05
1.69936e-05
-3.64063e-05
-5.18691e-05
-4.76672e-05
-3.98443e-05
2.92793e-05
9.94087e-05
2.01961e-05
-3.3559e-05
-1.79536e-06
-2.27947e-05
1.65097e-05
9.8951e-05
0.000127944
-1.3795e-05
-2.09836e-05
-4.41943e-05
0.000184826
1.18652e-05
6.53409e-05
2.59064e-05
5.19876e-05
3.69715e-05
1.3845e-05
2.12555e-05
9.10461e-06
7.37673e-05
-1.95785e-05
5.57523e-05
1.45051e-05
-7.60043e-05
-1.21291e-05
-6.23644e-05
-3.01003e-06
6.63635e-05
6.87671e-05
0.00014618
0.000120374
7.06168e-05
0.000104242
-8.3067e-06
5.56803e-06
6.93838e-05
-0.000147253
8.98077e-05
6.51671e-05
2.64224e-05
-3.25604e-05
-3.76573e-05
0.000156752
-0.000141392
-9.02941e-05
3.99359e-05
3.07639e-06
7.594e-05
-8.49129e-05
-0.00010938
0.000122563
-8.97865e-06
4.96468e-05
9.84161e-05
-6.76659e-05
0.000191514
2.3623e-06
-0.00010483
-1.21337e-05
-8.14563e-05
0.000142382
-4.3005e-05
-4.11059e-05
-6.15851e-05
0.000192622
1.89255e-05
-2.72368e-05
-4.29107e-07
-3.96736e-05
2.01034e-05
-7.88746e-05
-0.000254926
-1.55545e-05
-1.53505e-06
-1.48369e-05
-8.9489e-05
5.20749e-05
0.000116279
2.30324e-05
6.70407e-05
0.000158208
-1.46242e-05
-2.58706e-05
-1.87773e-05
0.00014565
-8.106e-05
-2.94563e-05
-7.65708e-05
-7.65468e-05
-7.74174e-05
2.29365e-05
-6.65985e-05
-1.47801e-06
-1.19011e-06
2.00504e-05
-7.21422e-05
5.34406e-05
-0.000160981
-9.31018e-05
3.7638e-05
2.26651e-05
1.90111e-05
1.93592e-05
5.49165e-05
-5.01383e-05
-7.47608e-05
-1.12904e-05
9.96233e-05
0.000146566
-0.000198876
-2.96605e-05
0.000165383
-0.000127106
3.32515e-05
-7.67375e-05
-3.42962e-05
3.12563e-06
-2.97698e-05
9.91962e-05
9.31707e-06
-9.18991e-05
3.47854e-05
-2.11669e-05
-6.337e-05
-5.87557e-05
0.000106561
-7.27279e-05
-8.46174e-05
-5.86194e-05
-0.000127149
-2.49649e-05
2.79612e-05
-9.16788e-05
3.06496e-05
4.7209e-05
-0.000110896
0.000260224
-7.08515e-05
-3.52173e-05
-0.000107083
-0.000124875
7.04075e-05
3.00084e-06
-8.25046e-05
-3.38183e-05
-1.13301e-05
1.62651e-05
8.72919e-05
7.62813e-05
0.000109547
-0.000126481
-9.90734e-05
-4.94183e-07
0.000158543
0.00010619
-4.17443e-05
8.99466e-05
4.17505e-05
-4.818e-05
-4.90067e-05
-3.99696e-05
2.04545e-05
2.02483e-05
3.82424e-06
7.78079e-05
4.44666e-05
-3.1668e-05
5.52145e-05
0.000242644
5.42117e-05
-4.12001e-05
2.52522e-05
0.000117293
8.92507e-05
8.24463e-05
2.80008e-05
3.49899e-05
-6.40305e-05
-6.41143e-05
6.27866e-05
-0.000152459
-1.18185e-06
-2.26425e-05
-1.55618e-05
0.000110433
-6.96903e-05
-7.99692e-05
-2.63425e-05
-2.57976e-05
-5.08857e-05
3.0048e-06
0.000155724
1.57889e-05
-0.000170241
2.00482e-05
9.36227e-05
-5.63217e-06
-7.33065e-05
-1.8772e-05
2.4783e-05
-1.37935e-05
-9.2183e-05
-0.00010279
-1.76087e-05
8.54426e-05
4.62891e-06
7.8026e-05
7.00185e-05
9.89819e-05
-8.66258e-06
6.24238e-05
0.000150294
-1.95163e-05
2.83528e-05
0.000113553
8.16727e-05
1.15477e-05
-5.1477e-05
-9.96516e-05
-5.74373e-05
4.71118e-05
-5.29784e-05
-4.0659e-05
-7.04839e-05
4.13308e-05
-9.1002e-05
6.20869e-05
6.51042e-05
6.50807e-05
5.01191e-06
-5.90575e-06
2.62517e-05
1.75517e-05
-2.91966e-05
-4.35215e-05
-0.000154575
8.81217e-06
6.35682e-05
4.35245e-05
-2.2051e-05
0.000210214
7.45497e-05
-4.47582e-06
-0.000122784
-3.52371e-05
5.41937e-06
-7.67487e-05
-3.11392e-05
3.13293e-05
2.11351e-05
-8.49337e-05
2.72953e-05
6.05944e-05
-3.39721e-05
7.38283e-05
-0.000176193
-2.80347e-05
8.80923e-05
1.66198e-05
5.94405e-06
3.37767e-06
-3.14413e-05
-1.12881e-05
-5.10727e-05
-8.87725e-06
6.95181e-05
-0.000120376
-6.21497e-05
-0.000180076
-5.38264e-05
-3.31324e-05
-4.44036e-05
4.07198e-05
-3.0908e-05
2.88896e-06
-0.000111997
-1.62894e-05
2.03717e-05
-4.39662e-05
-2.56784e-05
3.96931e-05
0.000121085
3.23963e-05
5.9683e-05
-1.44715e-05
-5.99293e-05
4.85219e-05
1.40935e-05
-7.20341e-05
-0.000135417
-4.59799e-05
0.000110955
-0.000116042
-6.54603e-06
-1.17561e-05
-1.13659e-05
4.14626e-05
-6.87451e-05
5.8678e-06
-0.000124308
-3.75567e-06
2.33442e-05
7.09349e-05
-0.000199474
-8.12623e-05
4.57822e-05
7.10712e-05
-4.65219e-05
-6.39589e-05
-6.91096e-05
-6.35595e-05
1.0852e-05
-4.60093e-05
-7.73993e-05
-3.59854e-05
1.19384e-06
0.000148673
0.0001408
-6.91856e-06
8.2936e-05
4.94891e-05
-0.000144578
1.62942e-05
-3.49646e-05
6.41309e-05
2.1481e-06
0.000168217
-9.02067e-06
-3.4129e-05
0.000109682
-5.99888e-07
0.000163936
-0.000179043
-8.34616e-05
-5.70082e-05
-4.95429e-06
5.96722e-06
6.39965e-05
-2.23544e-05
-0.000121538
6.16673e-05
-7.89955e-05
0.000165061
-0.000124775
4.05519e-05
2.08464e-05
4.49829e-06
1.45342e-05
-8.08714e-06
-2.1078e-05
2.23593e-05
-9.08342e-05
6.12051e-05
-2.47266e-05
-7.60144e-05
-6.81151e-05
5.88651e-05
0.000267977
-0.000112552
-1.0128e-05
7.54953e-06
2.28615e-05
4.83997e-05
-6.9326e-05
0.000120208
-0.000105761
0.000108412
-7.89238e-05
-1.73179e-05
-2.07624e-05
-1.87289e-05
-1.57446e-05
-2.53933e-05
-0.000103493
-7.23436e-05
0.000262531
-0.000102727
-0.000103279
1.91999e-05
-0.000203236
7.86467e-06
0.000185966
2.48818e-05
7.02742e-05
-0.000102542
2.63978e-05
7.4113e-05
-1.5595e-06
-0.000145403
9.81487e-05
-2.73706e-05
-7.87303e-05
-0.000104703
9.37376e-07
3.5461e-05
0.000105591
-4.81579e-05
9.31699e-05
-1.23146e-05
3.92483e-06
-0.0001666
-1.25456e-05
6.14638e-06
-0.000137027
-2.44956e-05
4.54674e-05
-1.71037e-05
-0.000170733
-6.95768e-05
5.24754e-06
-0.000114747
4.23134e-05
-0.000100308
0.000133679
7.73701e-05
-6.9889e-05
-0.000167784
-6.52066e-05
1.81473e-05
-0.000111439
7.63613e-05
2.50658e-05
5.21771e-05
-0.000217055
-6.56149e-05
0.000107744
-2.95292e-05
-0.000131913
3.01574e-06
-1.50861e-05
-0.000130869
-8.71293e-05
1.67583e-05
-1.00079e-05
-3.48322e-05
-2.00141e-06
-5.23383e-05
-5.48935e-05
-9.31526e-05
-5.92135e-06
-8.85796e-05
0.000104577
2.63951e-05
1.04486e-05
7.36029e-05
6.73524e-05
8.23846e-05
-3.58695e-05
0.000159827
-1.67694e-05
2.62207e-05
-2.92063e-05
1.38825e-06
-6.0729e-05
0.000158179
2.26772e-05
-3.11784e-06
-3.9271e-05
-0.000119371
8.82904e-05
6.55061e-05
0.000100196
-9.20418e-05
-6.46865e-05
-3.3028e-05
-2.05263e-06
-4.03154e-05
-2.72145e-05
-9.18702e-05
-0.000112713
0.000137777
5.85036e-05
4.65598e-05
-8.98703e-06
-1.5894e-05
8.44679e-05
0.000130921
4.95375e-05
6.31131e-05
2.41901e-05
-5.59437e-05
0.000105114
2.85851e-05
-0.000114897
2.33733e-05
-0.000146268
0.000119599
-1.35917e-05
-8.37992e-05
2.47743e-05
-2.22793e-05
2.27883e-05
8.19946e-05
-6.01949e-05
-6.29255e-05
-4.6101e-05
0.000100502
-0.000117466
9.41474e-05
7.95024e-05
7.58168e-05
-3.05498e-05
-2.87748e-05
4.45232e-05
-7.50734e-05
-0.000139936
-4.71212e-05
-3.40504e-05
-5.70854e-06
7.11661e-05
-3.16002e-05
0.00012695
-4.46104e-06
-4.39974e-05
-4.87771e-05
-3.8563e-05
-0.000106856
-0.000144441
8.40579e-05
-3.06928e-05
5.14709e-05
-1.69494e-05
-1.94762e-05
0.000118904
9.84375e-05
-4.46453e-06
-0.000190111
-5.07068e-05
8.62947e-05
-4.52718e-05
-0.000162819
1.12765e-05
6.13023e-05
-6.78881e-05
2.2843e-05
3.12101e-05
2.36551e-05
-8.60157e-05
5.45272e-05
0.000131358
-0.000175218
-7.78104e-05
-1.28273e-05
0.000155566
0.000180406
3.70051e-05
3.01438e-05
3.01162e-05
-0.000153405
0.000100279
2.31661e-05
3.60312e-05
-1.98685e-05
2.04946e-05
1.63808e-05
-1.25959e-05
7.83142e-05
0.000118372
0.000148371
-0.000230983
-8.0199e-05
-8.00731e-05
-0.000107776
-1.02425e-05
-6.37587e-05
-5.18281e-06
7.13899e-05
6.73473e-05
-9.06864e-05
-3.83635e-05
1.97131e-05
-1.18656e-05
-7.22235e-05
-1.23859e-05
-6.3237e-05
-0.000145328
-0.000175362
-0.000113911
0.000154909
3.01265e-05
6.39115e-05
6.50089e-05
9.96385e-05
1.27172e-06
3.28431e-06
5.08368e-05
-9.868e-05
-4.52987e-05
3.39142e-05
0.000109626
-8.84598e-05
-3.788e-05
4.2391e-05
1.41421e-05
9.9272e-05
4.10738e-05
-5.1687e-05
-1.60767e-05
2.72247e-05
-3.32447e-06
3.27742e-05
-8.35322e-05
1.1395e-05
-2.69286e-05
-4.63781e-05
0.00013484
-7.62074e-05
8.31004e-05
-3.01492e-05
-0.000129385
7.53241e-05
8.47236e-05
6.30072e-05
0.000130885
-0.000131506
8.54675e-06
-5.85326e-05
4.05102e-06
3.30054e-05
-6.13575e-05
0.000112523
8.03812e-05
7.52922e-05
-0.000128777
-0.00014234
0.000124858
3.47954e-06
4.76056e-05
-0.000102269
-4.39791e-05
-1.08819e-05
0.000194949
-0.000143673
4.5154e-06
4.49456e-05
-9.68706e-05
0.000115113
0.0002056
-0.000105269
5.5767e-05
-2.77529e-05
-2.57948e-05
-0.000145885
0.000229757
7.74011e-05
0.000125014
-5.47096e-05
5.02376e-05
-1.04007e-05
-9.61993e-05
0.000154163
-4.98708e-05
-6.67688e-05
-7.18075e-05
0.000120233
4.53659e-05
-0.000136615
2.54094e-05
-0.000192546
7.41536e-05
4.64334e-05
1.51633e-05
-7.30043e-05
-1.68274e-05
5.80401e-05
1.6094e-05
-6.40402e-05
-3.59919e-05
4.73523e-05
0.000135982
-0.000109777
-1.41183e-05
4.54695e-05
3.67609e-05
8.11527e-05
3.03864e-05
1.27448e-05
3.95901e-05
-9.30708e-05
-6.98892e-05
-5.98817e-06
5.96116e-05
-1.08189e-05
-5.61539e-05
0.000111091
2.83859e-05
1.99339e-05
5.22507e-05
-9.12077e-05
6.82336e-05
1.42719e-05
-6.64073e-05
-1.76111e-05
-0.000142802
-7.32352e-05
6.79551e-05
-1.98197e-06
0.000159664
-1.65959e-05
-9.97945e-05
-2.26957e-05
-0.000134737
-4.51759e-05
1.80593e-05
-3.21656e-05
-6.97857e-05
2.33642e-05
0.000101207
3.91251e-05
-5.94927e-05
0.000140609
-9.47695e-05
-2.56887e-05
7.40667e-05
-6.7607e-06
-2.06823e-05
-0.000100037
-0.000174036
-9.63645e-05
1.19286e-05
7.48428e-05
-3.77716e-05
8.88451e-05
-6.15655e-05
-0.000111301
-2.51104e-05
5.1077e-05
-9.50624e-05
4.35435e-05
-9.75587e-05
-0.000104123
-0.000127945
0.000110764
-4.99072e-05
-6.39248e-05
-9.17362e-05
-3.47624e-05
2.4167e-05
0.000101975
0.000105623
0.000143733
4.1611e-05
-0.000102869
0.000139105
-0.000161684
-4.97556e-05
6.87238e-05
2.83219e-05
-8.60995e-05
7.15713e-05
-0.000103383
3.78557e-05
-4.8355e-05
-0.000251385
1.59316e-05
-1.74755e-05
3.52438e-05
0.000115578
9.04237e-05
4.86064e-05
5.52826e-05
2.3029e-05
0.000113723
2.99687e-05
3.55311e-05
-7.34817e-05
2.67543e-05
-1.3337e-05
-4.88213e-05
3.83885e-05
1.02023e-05
7.91643e-05
-3.6065e-05
-0.000114225
-5.56221e-06
0.000131526
3.70194e-05
4.97522e-05
9.43949e-05
-7.28283e-05
-7.67875e-06
9.09568e-05
8.94848e-05
4.92588e-05
-9.65281e-06
7.61553e-05
-2.55127e-05
5.60097e-06
4.04808e-05
0.000112109
-8.91431e-05
-2.33001e-05
-5.88325e-05
-7.12702e-05
-8.68982e-06
-2.40258e-06
-3.34298e-06
-7.80334e-05
-0.000115348
-0.000124507
-0.000172516
-9.73387e-05
-3.42727e-07
2.94038e-05
-8.61171e-05
7.68336e-05
9.52909e-05
-0.00015441
-3.00128e-05
4.07769e-05
5.15821e-05
5.76824e-05
-7.38599e-05
8.91513e-05
2.54016e-05
-1.51373e-05
0.000112749
-3.00043e-05
7.4767e-05
4.33099e-05
-6.99793e-05
0.000130674
6.9967e-05
4.83471e-05
0.000151279
1.01819e-05
5.74652e-05
6.05866e-05
0.000103767
-3.22359e-05
5.08499e-05
4.67023e-05
-5.64882e-06
-7.43797e-05
6.68922e-05
-1.83189e-05
-8.35737e-05
5.35701e-05
1.59391e-05
-3.81097e-06
-7.47867e-05
-0.00011307
0.00020117
-7.85461e-05
4.72972e-05
-2.55941e-05
1.19426e-05
-2.54298e-06
-1.84267e-05
-0.000212098
-5.24311e-06
8.26393e-05
0.000208381
-0.000137522
-0.000124
2.097e-05
-7.53794e-05
6.30168e-05
0.000148272
-3.83556e-05
7.98276e-05
2.8608e-05
3.08652e-05
6.45369e-05
-0.000174204
-8.56457e-05
-4.69858e-05
-2.80839e-05
7.34583e-05
7.79217e-05
-8.13394e-05
6.24278e-05
-4.37959e-05
-6.3124e-05
-3.45448e-05
-0.000111561
0.000158025
2.35315e-05
-1.5478e-05
-4.41213e-05
-4.50928e-05
7.22841e-05
0.000115232
1.60746e-05
-6.68084e-06
-4.09142e-06
5.36111e-05
-7.81054e-06
-2.47484e-05
0.000131008
-4.37523e-05
9.12084e-05
1.3333e-05
-0.000107963
-9.4334e-05
3.84073e-05
-5.00698e-05
-5.70214e-06
3.43616e-05
6.00673e-05
3.37178e-05
4.77757e-05
-0.000101879
2.29229e-05
-3.91322e-05
6.72224e-05
-2.20855e-05
-5.5111e-07
-2.80545e-05
4.08548e-06
0.000142196
7.729e-05
-2.56754e-05
4.53714e-05
-0.000147954
0.000202139
6.86542e-05
-1.21868e-05
4.37875e-05
9.50939e-06
3.93541e-05
-6.78443e-05
-8.06595e-05
-6.42465e-05
0.00010692
-8.80044e-05
1.87412e-05
-1.57601e-05
-2.03011e-05
7.46908e-05
-0.000140586
1.62385e-05
4.04863e-05
-2.94395e-05
-1.49956e-05
7.88852e-05
5.85208e-05
5.61742e-05
3.73455e-05
-0.000233094
-0.000134526
5.86123e-05
9.16291e-05
9.59705e-05
-0.000152539
-8.68466e-05
4.14322e-05
4.68013e-06
7.30803e-05
-4.96276e-05
3.34744e-05
0.000126815
-2.43224e-05
-2.14111e-06
0.000105154
0.000164113
9.87151e-05
-2.90383e-05
-0.000216634
-6.79155e-05
9.16678e-06
-0.00012712
-5.49473e-05
0.000113116
4.6991e-06
-0.000165056
-1.83589e-05
-3.76005e-05
4.48494e-05
7.26428e-05
-8.79487e-05
2.20453e-05
-0.000137144
-1.50682e-05
8.69825e-05
9.29229e-05
2.13103e-05
3.02626e-05
5.83903e-05
-1.44514e-05
2.35272e-05
5.02085e-05
5.39054e-05
-1.1581e-06
5.64083e-05
1.63282e-05
-0.000119712
-4.47301e-05
-0.000126735
0.0001175
5.99812e-05
1.71959e-05
6.37374e-07
-0.000163775
3.87941e-05
0.000254858
-0.000128255
-5.13152e-05
-0.000137168
2.22421e-05
-8.65851e-06
3.60818e-06
-2.0257e-05
9.4861e-06
2.30339e-06
-4.25423e-05
1.97073e-05
-1.73762e-05
0.000107823
-0.000127446
3.94683e-06
0.00010084
1.37594e-05
3.65891e-05
0.000150927
-9.62249e-05
-0.00014682
9.66084e-06
2.96269e-05
1.6138e-05
1.99571e-05
7.5439e-05
-7.17475e-05
-7.7604e-05
-6.97488e-05
-8.90632e-05
6.88984e-05
5.6198e-05
2.08453e-06
-4.20178e-06
5.6787e-05
2.48121e-05
-0.000182917
-2.34427e-05
6.17525e-06
1.63609e-05
-8.65966e-05
-0.000110931
0.000170932
5.46e-06
-1.94412e-05
-2.68016e-05
-3.4592e-05
-2.87279e-05
4.8041e-05
-4.59013e-05
-8.55466e-06
-1.45787e-05
-7.27493e-05
6.92009e-05
0.000210347
6.04145e-05
6.64389e-05
4.78576e-05
-3.20538e-05
1.16344e-05
1.73477e-05
4.76029e-05
0.000144218
7.6196e-05
-0.000159779
4.59503e-05
-3.45958e-05
2.96993e-05
6.83001e-05
-7.66498e-05
0.000118377
4.13787e-06
-2.69344e-05
-5.35634e-05
-0.000102592
0.000152098
4.4537e-05
-7.68298e-05
-7.43847e-05
3.89434e-05
-4.36174e-05
0.00011865
-0.000213984
6.20802e-05
-7.75408e-05
-1.5459e-05
-3.00711e-05
-9.54998e-05
-1.78319e-05
-3.48543e-05
-2.7672e-05
-7.26106e-06
1.25301e-05
-3.96621e-05
2.17496e-05
-4.1646e-05
0.000185676
-0.000127043
-5.9908e-05
0.000112579
4.39737e-05
-0.000114318
-0.000120501
2.26127e-05
-2.30203e-05
2.06109e-05
8.47953e-05
0.000228576
6.17165e-05
-0.000155496
-7.56622e-05
0.000182509
-1.17011e-05
-1.9671e-05
2.15874e-05
6.11665e-05
3.7753e-05
0.000101489
-9.61896e-05
2.89541e-05
-0.00010764
8.55065e-05
8.94926e-05
2.6798e-05
-3.83679e-05
7.00399e-05
-0.000180386
-4.23151e-05
8.41301e-05
5.17888e-05
-3.64785e-05
1.61259e-05
-7.08966e-05
-3.57023e-05
-0.000125271
-5.45459e-05
2.96554e-05
-1.86642e-05
7.59807e-05
0.000191523
0.00013737
-6.92639e-05
2.22296e-05
-7.67712e-05
-0.000116935
7.0597e-05
-2.00935e-05
-2.52773e-06
3.08361e-06
0.000102074
-7.96095e-05
-5.16411e-05
-5.2808e-05
-0.000176162
0.000106418
9.26319e-05
0.000170292
-8.83226e-05
7.57666e-06
5.49997e-05
-5.80435e-05
2.81903e-05
-3.72102e-05
-7.80192e-06
-0.000122656
6.93116e-05
1.45921e-05
2.88044e-05
-7.31115e-05
4.84949e-05
0.000198127
9.70904e-07
2.75661e-05
-7.11898e-05
1.63532e-05
-7.07456e-07
-4.68594e-05
-1.77972e-05
3.10987e-05
6.41872e-05
2.70043e-05
-6.99137e-05
0.000150067
4.72694e-05
1.71332e-05
-0.000155566
8.68111e-05
3.90375e-06
6.15022e-06
4.68305e-05
-0.000104207
6.55598e-05
4.84815e-05
-4.42176e-05
-8.74996e-05
0.000148666
-5.8979e-05
-0.000142375
-3.69716e-05
-4.99955e-05
1.4093e-05
0.000159628
-6.71749e-05
5.42634e-05
9.94756e-05
-0.000109678
6.45532e-05
0.00012547
2.34436e-05
-5.38974e-05
3.19536e-05
-6.1749e-06
-1.18779e-05
2.33485e-05
-5.32775e-06
-0.000136191
1.28753e-05
-0.000140137
0.000121971
0.000122621
-5.79205e-05
-4.29724e-06
0.0001192
0.000142745
4.55225e-05
-0.000166058
2.122e-05
-5.42561e-05
7.99833e-05
0.000109268
-1.06392e-05
-4.12891e-05
0.000151185
0.000112515
1.17188e-05
4.6349e-05
4.02343e-05
4.24584e-05
-8.47573e-05
-0.000131577
2.41888e-06
-3.47204e-05
0.000111404
3.10148e-05
-4.31389e-05
2.29783e-05
-0.000112617
0.000223895
6.11786e-05
8.93895e-05
5.25534e-05
4.01909e-05
-1.20036e-05
-0.000151097
-0.000141834
-4.66205e-05
-3.76685e-05
5.36627e-05
1.60425e-05
-4.90398e-05
0.000280154
0.000101596
-0.000147311
2.57671e-05
6.37495e-05
-3.15532e-06
7.34942e-06
0.00020402
0.000192661
-3.82173e-05
0.000136794
1.16342e-05
9.30025e-05
9.50631e-05
-7.90043e-05
-0.000191655
-9.66229e-05
-4.51187e-05
-2.57802e-06
6.45543e-05
1.06002e-05
-0.000113191
-9.59625e-05
3.60962e-05
0.000115508
-3.07964e-05
-2.45812e-05
-3.2882e-05
-1.19844e-05
4.84306e-05
-3.76571e-05
-8.90793e-05
3.36053e-05
0.000156337
9.75619e-05
8.25056e-05
5.6206e-05
2.30935e-05
-4.62903e-05
-6.52218e-05
-0.000111823
-2.45897e-05
0.000154316
5.27599e-05
3.58503e-05
-0.000108544
-3.68054e-05
2.54484e-05
5.56323e-05
-2.68649e-05
3.7178e-05
-7.58063e-05
-6.49911e-05
-0.000100491
8.99312e-05
0.000150449
3.60422e-06
-7.89887e-05
0.000117106
-6.815e-05
-8.24094e-05
7.36059e-05
-5.07288e-05
-0.000139781
6.5255e-05
-9.77074e-07
7.9084e-05
-6.63137e-06
2.90549e-05
-0.000103176
8.20972e-06
5.28537e-06
-0.000145007
-3.98669e-05
-3.1446e-05
4.5863e-05
5.5158e-05
-5.71719e-05
-5.61668e-05
-1.30807e-05
-4.20067e-05
0.000190158
6.7319e-05
0.000225272
0.00015915
-0.000166472
7.14138e-05
-1.7884e-05
-7.62953e-05
-4.80039e-06
3.14905e-05
7.86062e-05
0.000123261
-2.22224e-05
7.39275e-05
-2.93202e-05
-2.66312e-05
1.34251e-05
2.25406e-05
7.61588e-05
-7.46201e-05
-8.45664e-05
8.85651e-05
-6.33155e-05
0.000184799
-3.04447e-05
-6.7546e-05
-6.69889e-06
-8.50308e-05
-2.53079e-05
3.09559e-05
0.000102864
-7.68349e-05
-0.000103076
8.06851e-06
2.14853e-05
-4.70377e-05
2.78761e-05
0.000112085
2.08494e-05
-7.73134e-05
8.57764e-05
3.69761e-05
-4.16264e-05
-7.56772e-05
-7.92516e-05
6.16963e-05
-1.98073e-05
-7.88615e-05
0.00017445
0.000213491
5.3206e-05
-0.000145261
-0.000115578
-0.00012796
-2.42118e-05
1.13118e-05
6.94633e-05
0.000130253
-2.35478e-05
0.000254962
-1.95729e-05
-0.000111504
1.35954e-05
2.43551e-05
-1.19372e-06
-3.96458e-05
-0.000132504
-1.13238e-05
-3.35185e-05
8.44398e-05
-2.22144e-06
0.000108524
-7.92074e-05
-5.22819e-05
4.17308e-05
7.54672e-05
-1.81472e-05
1.95352e-05
1.16577e-05
-2.13392e-05
-4.27407e-05
0.000104843
-0.000139725
-1.16177e-05
6.67567e-05
-2.90297e-05
-4.39913e-05
-1.17694e-05
3.91596e-05
-0.000122335
-3.40438e-05
-8.95413e-05
-4.4436e-05
5.59592e-05
7.96011e-05
-4.1389e-05
-0.00012411
4.5478e-05
-0.000194218
-2.18123e-05
0.000110389
5.29888e-06
-5.45024e-05
0.000101064
6.20554e-05
-6.8119e-05
0.000111799
6.81749e-05
-2.92519e-05
-0.000112141
0.000188559
1.91818e-06
-0.000128112
0.000113716
1.26755e-05
-0.000125837
-0.000133571
3.23243e-05
0.000105208
4.77217e-05
-0.000232908
-4.84376e-05
0.000110462
0.000131056
-8.89672e-05
1.36237e-05
1.48568e-05
-2.67142e-05
-0.000114321
3.33036e-05
-2.84495e-05
0.000110047
2.85129e-05
-8.49486e-05
8.17014e-05
9.48575e-06
0.000112195
-5.34281e-05
-1.49206e-05
4.44434e-05
-7.05151e-06
-3.20702e-05
-6.69295e-06
-5.79158e-05
-8.54661e-05
-9.07225e-07
5.88875e-06
-9.12668e-05
-0.000112228
-4.89636e-05
-6.85989e-06
2.99164e-06
5.29201e-06
1.16584e-05
-0.00024708
-9.93884e-06
0.000132019
0.000155796
-2.16531e-05
-3.30082e-05
0.000154125
-0.000163469
1.55816e-05
1.48895e-06
-4.52879e-05
6.28905e-05
1.97513e-05
-9.5251e-06
9.09724e-05
-1.8263e-05
6.51504e-05
-6.76088e-05
8.48372e-05
-5.7685e-05
5.48125e-05
5.45263e-05
-0.000120322
3.70429e-05
8.95323e-05
-5.68981e-05
-8.98825e-05
-2.14223e-05
0.000157221
-0.000121235
-0.00017803
6.45213e-05
-4.50569e-05
-0.000107048
1.61701e-05
4.75813e-06
5.66524e-06
-3.51256e-05
8.60714e-05
0.000132577
0.000157117
1.47376e-05
-5.66272e-05
4.17777e-05
-1.43244e-05
-3.9814e-07
9.36466e-05
-4.88919e-05
-1.61061e-05
4.20972e-05
-4.33529e-05
1.78232e-06
-4.74276e-06
-1.09507e-05
4.51687e-05
-2.31244e-05
-4.61231e-05
3.12894e-05
-7.72852e-05
-1.96558e-05
4.73962e-05
-0.000111933
-4.4213e-05
-1.9863e-05
6.69088e-05
0.000115531
4.67276e-05
-0.000121627
-5.03249e-05
3.78152e-05
-8.72195e-06
-2.31579e-05
-1.18406e-05
3.97091e-05
8.80763e-05
-1.02342e-05
0.000102973
-1.10461e-05
6.93975e-06
-3.97409e-05
6.57791e-05
-0.000120849
-1.12914e-05
0.000131526
-2.24805e-05
2.30626e-05
-6.87148e-05
-0.000175519
-3.56792e-05
0.000146863
-4.80798e-05
0.000143312
-1.58546e-05
3.03962e-05
-6.45164e-05
1.2839e-05
0.000139953
4.45077e-05
-5.12993e-05
6.79374e-05
2.79578e-05
-2.16035e-05
-3.25219e-05
-5.999e-06
6.73105e-05
-3.83847e-05
0.00013777
-6.62012e-05
8.93876e-05
-4.48513e-05
-1.62577e-05
-6.56559e-05
4.86897e-05
-3.09915e-05
-4.43966e-05
2.56118e-05
-8.41332e-05
-3.58847e-05
6.41863e-05
-5.49717e-05
-3.73656e-05
-0.000105663
-0.000124527
6.58778e-05
-2.91893e-05
-9.7721e-05
-0.000126126
3.26699e-05
-2.6993e-05
-3.25084e-05
0.00010376
7.38058e-05
-5.80443e-05
6.46139e-05
-1.05486e-05
2.71993e-05
0.000210053
-0.000169118
-0.000175469
-8.6406e-05
-8.4592e-06
4.51587e-05
-0.000150521
0.000118769
6.79438e-05
-7.61589e-06
3.47114e-05
0.000122192
6.67339e-05
1.17294e-05
5.98421e-06
-0.000106157
-9.87087e-05
-5.65321e-05
-1.44825e-05
0.000165092
4.78028e-05
5.22435e-05
-8.22757e-05
-5.39138e-05
-7.24073e-05
5.96539e-05
-6.85118e-05
1.12515e-05
6.07048e-05
4.12653e-05
4.08269e-06
7.84789e-05
-1.35929e-05
-6.45216e-05
3.71144e-05
0.000159808
5.29224e-06
-0.000127268
1.41525e-05
6.15972e-05
0.000102496
-3.89173e-05
-2.62572e-05
-5.4758e-05
-7.66808e-05
-6.3225e-05