# vtk DataFile Version 1.0
Electron Density - Current Sheet 
ASCII
DATASET STRUCTURED_POINTS
DIMENSIONS 256 128 1
ORIGIN 0 0 0
SPACING 0.15625 0.15625 1
POINT_DATA 32768
SCALARS rhoe float
LOOKUP_TABLE default
-1.91303e-18
-1.82018e-18
-1.94015e-18
-1.646e-18
-1.81944e-18
-1.80678e-18
-1.89864e-18
-1.96501e-18
-1.9606e-18
-1.8984e-18
-1.93878e-18
-1.91882e-18
-1.7714e-18
-1.6948e-18
-2.00973e-18
-1.93597e-18
-1.93041e-18
-1.84615e-18
-1.75993e-18
-2.0468e-18
-2.03296e-18
-2.05207e-18
-1.89751e-18
-1.99641e-18
-2.08716e-18
-1.77656e-18
-1.88025e-18
-1.70202e-18
-1.84198e-18
-1.95986e-18
-1.91586e-18
-1.88053e-18
-1.79209e-18
-1.8178e-18
-2.00287e-18
-1.63205e-18
-1.89213e-18
-2.1111e-18
-1.87525e-18
-1.66836e-18
-1.80697e-18
-1.71008e-18
-2.0313e-18
-1.8905e-18
-1.50874e-18
-1.78156e-18
-1.87724e-18
-1.87016e-18
-1.97079e-18
-1.89027e-18
-1.83541e-18
-1.95826e-18
-1.93228e-18
-1.66869e-18
-1.80044e-18
-2.11148e-18
-1.67294e-18
-1.64571e-18
-1.58855e-18
-1.73483e-18
-1.61071e-18
-1.75853e-18
-1.98242e-18
-1.84299e-18
-1.98155e-18
-1.59726e-18
-1.77001e-18
-1.95117e-18
-1.93921e-18
-1.89892e-18
-1.99693e-18
-1.83992e-18
-1.54903e-18
-1.84144e-18
-1.75214e-18
-2.11547e-18
-1.94206e-18
-1.72262e-18
-1.68523e-18
-1.86554e-18
-1.82905e-18
-2.01898e-18
-1.99624e-18
-1.67447e-18
-2.17087e-18
-1.79161e-18
-1.7406e-18
-2.03412e-18
-1.9062e-18
-1.83357e-18
-1.88816e-18
-1.78721e-18
-1.72784e-18
-1.7728e-18
-2.1568e-18
-1.80332e-18
-1.92182e-18
-1.84972e-18
-2.03848e-18
-1.75936e-18
-1.63543e-18
-1.77302e-18
-1.95228e-18
-1.96092e-18
-1.94262e-18
-1.95717e-18
-1.76491e-18
-1.79213e-18
-1.93809e-18
-2.11413e-18
-1.80399e-18
-1.90038e-18
-1.80307e-18
-1.57156e-18
-1.80264e-18
-2.03091e-18
-1.99424e-18
-1.94672e-18
-1.76971e-18
-2.04287e-18
-1.96968e-18
-1.73641e-18
-1.79828e-18
-1.75677e-18
-1.71079e-18
-1.96556e-18
-1.7282e-18
-1.88131e-18
-1.65915e-18
-1.88331e-18
-1.93628e-18
-1.85004e-18
-1.96169e-18
-2.02811e-18
-1.84004e-18
-1.9557e-18
-1.85624e-18
-1.80234e-18
-1.82447e-18
-1.90577e-18
-1.66961e-18
-2.05521e-18
-1.86503e-18
-1.64365e-18
-1.81783e-18
-1.75691e-18
-1.84858e-18
-1.83177e-18
-2.13569e-18
-1.80696e-18
-1.99903e-18
-1.69471e-18
-1.89022e-18
-2.02785e-18
-1.94983e-18
-1.7302e-18
-1.90977e-18
-2.07737e-18
-1.97226e-18
-1.83961e-18
-1.69688e-18
-1.94743e-18
-1.95637e-18
-2.00281e-18
-2.05152e-18
-1.89492e-18
-1.74361e-18
-1.79809e-18
-1.97701e-18
-1.81685e-18
-2.01363e-18
-1.88957e-18
-2.08013e-18
-1.65292e-18
-2.10477e-18
-2.04558e-18
-1.92646e-18
-1.90214e-18
-1.99146e-18
-1.87412e-18
-1.85344e-18
-1.77172e-18
-1.96682e-18
-2.00865e-18
-1.99831e-18
-1.50184e-18
-1.712e-18
-1.88075e-18
-1.92167e-18
-1.86028e-18
-1.89698e-18
-1.96102e-18
-1.71342e-18
-1.91637e-18
-1.92557e-18
-1.84512e-18
-1.87079e-18
-1.74587e-18
-1.75073e-18
-1.67765e-18
-1.87983e-18
-1.9854e-18
-1.68565e-18
-1.74904e-18
-1.57236e-18
-1.93042e-18
-1.91506e-18
-1.78023e-18
-1.79052e-18
-1.64602e-18
-1.91278e-18
-1.80499e-18
-2.01074e-18
-1.7147e-18
-1.80688e-18
-1.63488e-18
-1.78378e-18
-1.94998e-18
-2.12995e-18
-1.80383e-18
-1.90548e-18
-1.86422e-18
-2.01165e-18
-1.78508e-18
-2.03432e-18
-1.81916e-18
-1.77789e-18
-1.73765e-18
-1.98618e-18
-1.96266e-18
-2.02799e-18
-1.85699e-18
-1.85357e-18
-2.04539e-18
-1.94818e-18
-1.74733e-18
-1.84687e-18
-1.95895e-18
-1.67456e-18
-1.75572e-18
-2.00289e-18
-1.87818e-18
-1.89821e-18
-1.77239e-18
-1.95682e-18
-1.71199e-18
-1.85318e-18
-1.84941e-18
-2.03206e-18
-1.79063e-18
-1.88621e-18
-1.8706e-18
-1.81938e-18
-1.66518e-18
-1.95581e-18
-1.56502e-18
-2.89895e-18
-2.8028e-18
-3.03979e-18
-3.00805e-18
-2.77073e-18
-2.99952e-18
-2.61248e-18
-2.82822e-18
-2.75006e-18
-2.58546e-18
-2.65649e-18
-2.9263e-18
-3.04365e-18
-2.67624e-18
-2.62217e-18
-2.85317e-18
-2.91464e-18
-2.98696e-18
-2.92702e-18
-2.63241e-18
-2.78819e-18
-2.74887e-18
-2.82272e-18
-2.70384e-18
-3.08821e-18
-2.65862e-18
-2.83234e-18
-2.57326e-18
-2.87103e-18
-2.9551e-18
-2.92708e-18
-2.55082e-18
-2.79977e-18
-2.7996e-18
-2.9432e-18
-2.79487e-18
-3.06816e-18
-2.844e-18
-2.88638e-18
-2.77321e-18
-2.78603e-18
-2.65753e-18
-3.09403e-18
-2.73749e-18
-2.73529e-18
-2.81294e-18
-2.98437e-18
-2.9101e-18
-2.48868e-18
-2.92143e-18
-2.87288e-18
-2.77926e-18
-2.88773e-18
-2.93878e-18
-2.57807e-18
-2.64915e-18
-2.84931e-18
-2.80929e-18
-2.69142e-18
-2.8625e-18
-2.87018e-18
-2.96691e-18
-2.81342e-18
-2.63906e-18
-2.9327e-18
-2.7662e-18
-3.01791e-18
-2.89849e-18
-2.72305e-18
-2.80015e-18
-2.99428e-18
-2.82378e-18
-2.88553e-18
-2.933e-18
-2.89108e-18
-2.67756e-18
-2.60294e-18
-2.77166e-18
-2.84523e-18
-2.78604e-18
-2.8773e-18
-2.79684e-18
-2.68459e-18
-2.54914e-18
-2.53585e-18
-2.85524e-18
-2.988e-18
-2.91225e-18
-2.79182e-18
-2.67092e-18
-3.16499e-18
-2.77731e-18
-2.55485e-18
-2.73156e-18
-2.92224e-18
-2.91463e-18
-2.86298e-18
-2.77579e-18
-2.82692e-18
-2.79652e-18
-2.66795e-18
-2.96825e-18
-2.84523e-18
-3.01941e-18
-2.66695e-18
-2.64429e-18
-2.73873e-18
-2.95921e-18
-2.93255e-18
-2.81538e-18
-2.63931e-18
-2.8169e-18
-2.94587e-18
-2.73254e-18
-2.74207e-18
-2.77314e-18
-2.78188e-18
-3.01044e-18
-2.44314e-18
-3.02279e-18
-2.89978e-18
-2.94441e-18
-3.00567e-18
-2.28582e-18
-2.92743e-18
-3.00541e-18
-3.01214e-18
-3.06519e-18
-2.87021e-18
-2.74423e-18
-2.76379e-18
-2.96217e-18
-2.92468e-18
-2.84641e-18
-2.39565e-18
-2.6472e-18
-2.92808e-18
-2.91536e-18
-2.78843e-18
-2.88089e-18
-2.53813e-18
-2.79977e-18
-2.74589e-18
-3.1162e-18
-3.05877e-18
-2.92622e-18
-2.63529e-18
-2.84695e-18
-2.73448e-18
-2.72488e-18
-2.93458e-18
-3.07193e-18
-2.90424e-18
-2.93866e-18
-2.83098e-18
-2.9201e-18
-2.98444e-18
-2.71983e-18
-2.80637e-18
-2.83669e-18
-2.61073e-18
-2.94779e-18
-2.82903e-18
-2.77367e-18
-3.03418e-18
-2.93405e-18
-2.62301e-18
-2.88118e-18
-2.63041e-18
-2.80267e-18
-2.87618e-18
-2.99349e-18
-2.83014e-18
-2.66201e-18
-2.75964e-18
-2.98969e-18
-2.76019e-18
-2.90607e-18
-2.78585e-18
-2.7256e-18
-2.88267e-18
-2.55586e-18
-2.78155e-18
-2.77316e-18
-2.91187e-18
-2.70803e-18
-2.5411e-18
-2.65858e-18
-2.66063e-18
-2.87747e-18
-2.89119e-18
-2.72827e-18
-2.63748e-18
-2.83539e-18
-2.94659e-18
-2.88612e-18
-2.80369e-18
-2.73174e-18
-2.78345e-18
-2.84725e-18
-2.78443e-18
-2.92751e-18
-2.87022e-18
-2.67352e-18
-2.67177e-18
-2.84367e-18
-2.86428e-18
-2.90898e-18
-3.0834e-18
-2.82758e-18
-3.23457e-18
-2.79763e-18
-2.82034e-18
-2.77484e-18
-2.90056e-18
-2.62886e-18
-2.85422e-18
-2.6267e-18
-2.90877e-18
-2.79973e-18
-3.11851e-18
-2.82506e-18
-3.04098e-18
-2.80734e-18
-2.86375e-18
-2.74764e-18
-2.88505e-18
-2.65245e-18
-2.82279e-18
-2.63425e-18
-2.70108e-18
-2.5306e-18
-2.80872e-18
-2.62986e-18
-3.151e-18
-2.90015e-18
-2.74919e-18
-2.47129e-18
-2.82553e-18
-2.68441e-18
-2.99314e-18
-2.7313e-18
-2.76944e-18
-2.59165e-18
-3.00957e-18
-2.49887e-18
-2.88765e-18
-2.76335e-18
-2.98409e-18
-2.57254e-18
-2.8639e-18
-2.77808e-18
-2.94256e-18
-2.68621e-18
-3.11611e-18
-2.8785e-18
-5.68622e-18
-4.90289e-18
-5.8342e-18
-5.09611e-18
-5.25401e-18
-5.83521e-18
-5.00118e-18
-4.73812e-18
-5.22285e-18
-5.17824e-18
-4.75091e-18
-5.17148e-18
-5.71029e-18
-5.41828e-18
-5.1758e-18
-4.97786e-18
-5.47479e-18
-5.11964e-18
-5.52104e-18
-4.66487e-18
-4.86215e-18
-4.94791e-18
-5.64391e-18
-5.21652e-18
-5.01586e-18
-4.9099e-18
-5.15224e-18
-4.88418e-18
-4.82614e-18
-5.21436e-18
-4.87165e-18
-5.0493e-18
-5.07365e-18
-5.21231e-18
-5.0316e-18
-5.07972e-18
-5.35084e-18
-5.23615e-18
-5.64165e-18
-5.09563e-18
-4.9028e-18
-5.25508e-18
-5.7413e-18
-4.67392e-18
-5.37785e-18
-5.19291e-18
-5.46121e-18
-5.34281e-18
-5.02989e-18
-4.95879e-18
-5.22277e-18
-5.05938e-18
-5.31943e-18
-5.15512e-18
-4.83681e-18
-5.23692e-18
-4.89516e-18
-5.40226e-18
-5.27734e-18
-5.68848e-18
-5.34066e-18
-5.27833e-18
-5.16289e-18
-4.98517e-18
-5.02353e-18
-5.22556e-18
-5.11432e-18
-5.56491e-18
-4.68211e-18
-4.87657e-18
-5.01505e-18
-5.06007e-18
-5.03349e-18
-5.33558e-18
-5.42966e-18
-5.50329e-18
-5.39956e-18
-5.30376e-18
-5.27101e-18
-5.57166e-18
-4.94352e-18
-5.12083e-18
-4.66908e-18
-5.33088e-18
-4.85253e-18
-5.15817e-18
-5.14744e-18
-4.94722e-18
-4.79961e-18
-5.18696e-18
-5.28469e-18
-4.95687e-18
-5.33308e-18
-5.44353e-18
-5.02335e-18
-5.11361e-18
-5.26428e-18
-5.02452e-18
-4.9753e-18
-4.95354e-18
-4.81832e-18
-5.07177e-18
-5.5379e-18
-4.79781e-18
-4.97877e-18
-4.77263e-18
-4.92157e-18
-4.99485e-18
-5.37566e-18
-5.10996e-18
-5.1497e-18
-5.30895e-18
-5.33085e-18
-4.89617e-18
-5.34705e-18
-5.10489e-18
-5.00367e-18
-5.25936e-18
-5.07347e-18
-5.14943e-18
-5.1975e-18
-5.21833e-18
-5.16654e-18
-5.12004e-18
-5.31428e-18
-4.80478e-18
-5.53087e-18
-5.04779e-18
-4.86403e-18
-5.32694e-18
-5.5994e-18
-4.8612e-18
-4.83235e-18
-5.17231e-18
-5.38824e-18
-5.33989e-18
-5.00141e-18
-5.0197e-18
-4.95425e-18
-5.05874e-18
-4.99424e-18
-4.91652e-18
-5.15295e-18
-4.86403e-18
-5.1599e-18
-5.65232e-18
-4.92145e-18
-5.54089e-18
-5.05972e-18
-5.03467e-18
-4.82758e-18
-4.97451e-18
-4.77571e-18
-5.19222e-18
-5.2393e-18
-4.81579e-18
-4.9079e-18
-5.19339e-18
-5.60425e-18
-5.45598e-18
-5.29613e-18
-5.15822e-18
-5.16886e-18
-4.54804e-18
-5.01772e-18
-5.32298e-18
-5.45e-18
-5.25961e-18
-4.81246e-18
-4.83298e-18
-5.25659e-18
-5.12147e-18
-5.26618e-18
-5.19921e-18
-4.95404e-18
-5.17328e-18
-5.3375e-18
-4.98658e-18
-5.37434e-18
-4.8391e-18
-5.21841e-18
-5.54251e-18
-5.07942e-18
-4.75616e-18
-5.72882e-18
-5.15667e-18
-5.14086e-18
-4.67803e-18
-5.44198e-18
-5.04082e-18
-5.18982e-18
-5.28112e-18
-5.22883e-18
-5.47394e-18
-5.3613e-18
-5.44051e-18
-5.48617e-18
-4.78717e-18
-4.77111e-18
-5.15959e-18
-5.44767e-18
-4.89797e-18
-5.03188e-18
-5.51778e-18
-5.19798e-18
-4.86017e-18
-5.32065e-18
-5.52956e-18
-5.58579e-18
-4.49487e-18
-5.01401e-18
-4.88852e-18
-5.13599e-18
-4.94674e-18
-5.45093e-18
-4.94667e-18
-5.34425e-18
-4.78153e-18
-5.6256e-18
-5.05813e-18
-5.60063e-18
-4.89343e-18
-5.70543e-18
-4.79294e-18
-5.17094e-18
-4.85784e-18
-5.44176e-18
-5.22323e-18
-5.90052e-18
-5.10612e-18
-5.36504e-18
-4.66027e-18
-5.0934e-18
-5.16954e-18
-5.22026e-18
-5.23408e-18
-5.77013e-18
-5.15708e-18
-5.74962e-18
-4.81365e-18
-5.50242e-18
-5.11913e-18
-5.48376e-18
-5.02792e-18
-5.78891e-18
-5.03495e-18
-5.24825e-18
-4.84122e-18
-5.29084e-18
-5.02569e-18
-5.54277e-18
-5.37196e-18
-5.37314e-18
-4.99944e-18
-5.17844e-18
-5.54371e-18
-1.12181e-17
-9.58989e-18
-9.46471e-18
-9.36803e-18
-9.58954e-18
-9.27134e-18
-9.66333e-18
-9.12437e-18
-1.026e-17
-9.11767e-18
-9.9214e-18
-1.05947e-17
-9.79585e-18
-9.13838e-18
-1.02404e-17
-9.4412e-18
-8.70093e-18
-1.06897e-17
-9.42637e-18
-8.90667e-18
-9.74698e-18
-9.60187e-18
-1.02011e-17
-9.73953e-18
-9.7474e-18
-9.78852e-18
-9.82164e-18
-9.79792e-18
-1.00798e-17
-1.04908e-17
-9.74629e-18
-9.46553e-18
-9.76468e-18
-9.97948e-18
-9.96021e-18
-1.01461e-17
-1.05365e-17
-9.97185e-18
-9.23686e-18
-1.00698e-17
-1.03097e-17
-8.66308e-18
-9.61712e-18
-9.96523e-18
-9.37679e-18
-9.7776e-18
-9.85605e-18
-9.99543e-18
-9.88536e-18
-9.82887e-18
-9.74962e-18
-9.81085e-18
-1.01831e-17
-9.36253e-18
-9.59711e-18
-1.03403e-17
-1.00876e-17
-9.33733e-18
-9.61432e-18
-9.93747e-18
-9.88169e-18
-9.80544e-18
-8.83164e-18
-9.90567e-18
-8.77818e-18
-8.75678e-18
-1.01731e-17
-9.98862e-18
-9.8152e-18
-1.01839e-17
-9.34215e-18
-9.56703e-18
-9.96939e-18
-9.59907e-18
-9.12877e-18
-9.63719e-18
-9.37972e-18
-1.00528e-17
-9.79554e-18
-9.64688e-18
-9.51271e-18
-1.01284e-17
-9.7467e-18
-9.82604e-18
-8.76547e-18
-9.21945e-18
-9.20164e-18
-9.92784e-18
-9.68899e-18
-1.00399e-17
-9.99843e-18
-1.00711e-17
-9.54796e-18
-1.01738e-17
-8.97039e-18
-9.43141e-18
-9.96921e-18
-1.00186e-17
-1.00284e-17
-1.00489e-17
-9.40991e-18
-9.22407e-18
-9.27565e-18
-9.76325e-18
-9.68101e-18
-9.42467e-18
-1.06056e-17
-1.06747e-17
-9.08914e-18
-8.86296e-18
-9.49035e-18
-1.01239e-17
-9.70317e-18
-9.29068e-18
-1.10716e-17
-9.49825e-18
-8.49148e-18
-1.03505e-17
-1.04275e-17
-9.79671e-18
-1.01581e-17
-9.31242e-18
-9.11483e-18
-9.6026e-18
-8.72851e-18
-9.55365e-18
-1.04855e-17
-9.91774e-18
-9.48063e-18
-9.57934e-18
-9.52415e-18
-1.03336e-17
-1.04545e-17
-9.21257e-18
-1.03167e-17
-1.02332e-17
-9.2066e-18
-8.91466e-18
-9.5643e-18
-9.79026e-18
-9.75179e-18
-9.62563e-18
-1.07768e-17
-9.78999e-18
-9.42148e-18
-9.72844e-18
-9.2195e-18
-9.91447e-18
-9.83297e-18
-8.81294e-18
-9.57152e-18
-9.84828e-18
-9.59938e-18
-9.81493e-18
-1.01689e-17
-9.55101e-18
-9.60918e-18
-9.42782e-18
-1.03547e-17
-9.5977e-18
-9.14495e-18
-9.44033e-18
-9.12567e-18
-9.4239e-18
-1.01841e-17
-1.06907e-17
-1.02291e-17
-9.99288e-18
-9.30724e-18
-9.98033e-18
-9.34446e-18
-1.05295e-17
-1.00866e-17
-9.2471e-18
-8.96944e-18
-9.50001e-18
-1.10175e-17
-9.5134e-18
-9.43418e-18
-9.4947e-18
-9.72557e-18
-9.83641e-18
-9.44634e-18
-9.85247e-18
-9.88397e-18
-9.90932e-18
-1.06772e-17
-1.00925e-17
-9.92081e-18
-9.16508e-18
-9.59642e-18
-1.07759e-17
-8.79854e-18
-9.8152e-18
-9.85131e-18
-1.01279e-17
-9.8988e-18
-9.48184e-18
-9.30225e-18
-9.43308e-18
-9.69103e-18
-9.95718e-18
-9.76386e-18
-1.01392e-17
-9.99577e-18
-9.30289e-18
-9.46323e-18
-9.55217e-18
-9.77994e-18
-8.82321e-18
-1.03572e-17
-9.62238e-18
-1.0996e-17
-9.31561e-18
-1.03959e-17
-8.68709e-18
-1.02846e-17
-9.45665e-18
-1.00726e-17
-9.58163e-18
-1.06637e-17
-8.88252e-18
-9.27e-18
-9.42702e-18
-9.6105e-18
-9.56858e-18
-1.13146e-17
-9.34872e-18
-1.02097e-17
-9.5992e-18
-1.00566e-17
-8.56262e-18
-9.8987e-18
-9.32642e-18
-1.02952e-17
-9.40297e-18
-9.8691e-18
-8.68672e-18
-1.1158e-17
-9.4892e-18
-9.31041e-18
-9.38005e-18
-9.3332e-18
-9.18859e-18
-1.00044e-17
-8.74484e-18
-1.01093e-17
-1.03436e-17
-1.04212e-17
-9.91299e-18
-1.00189e-17
-9.26045e-18
-9.99724e-18
-8.74414e-18
-1.01869e-17
-8.75046e-18
-1.92448e-17
-1.98205e-17
-1.82281e-17
-1.78115e-17
-1.87295e-17
-1.89802e-17
-1.82153e-17
-1.85112e-17
-1.91736e-17
-1.75889e-17
-1.77568e-17
-1.96554e-17
-1.94726e-17
-1.70883e-17
-1.82062e-17
-1.85065e-17
-1.91568e-17
-1.92382e-17
-1.68972e-17
-1.9208e-17
-1.95924e-17
-1.8306e-17
-1.85583e-17
-1.6792e-17
-1.76373e-17
-1.87164e-17
-1.83969e-17
-1.66543e-17
-1.85197e-17
-1.89051e-17
-1.82573e-17
-1.83439e-17
-1.86165e-17
-1.76803e-17
-1.7362e-17
-1.90459e-17
-1.80454e-17
-1.84149e-17
-1.73446e-17
-1.64709e-17
-1.83203e-17
-1.72879e-17
-1.88509e-17
-1.9185e-17
-1.72237e-17
-2.06924e-17
-1.84034e-17
-1.73717e-17
-1.8482e-17
-1.81224e-17
-1.70712e-17
-1.96469e-17
-1.80528e-17
-1.78815e-17
-1.79851e-17
-1.81154e-17
-1.75319e-17
-1.86591e-17
-1.87909e-17
-1.67031e-17
-1.90781e-17
-1.88979e-17
-1.75534e-17
-1.88718e-17
-1.6856e-17
-1.70365e-17
-1.87419e-17
-1.92839e-17
-1.73129e-17
-1.89391e-17
-1.90772e-17
-1.77326e-17
-1.84077e-17
-1.78188e-17
-1.71268e-17
-1.83864e-17
-1.8628e-17
-1.8051e-17
-1.91618e-17
-1.91199e-17
-1.85737e-17
-1.79926e-17
-1.88444e-17
-1.82033e-17
-1.88293e-17
-1.82512e-17
-1.66521e-17
-1.93812e-17
-1.9965e-17
-1.76394e-17
-1.80967e-17
-1.97161e-17
-1.78651e-17
-1.69983e-17
-1.68127e-17
-1.89569e-17
-1.99644e-17
-1.73648e-17
-1.7927e-17
-2.0605e-17
-1.88376e-17
-1.68332e-17
-1.92568e-17
-1.85993e-17
-1.66387e-17
-1.8365e-17
-1.81832e-17
-1.72902e-17
-1.94531e-17
-1.79565e-17
-1.95072e-17
-1.94388e-17
-1.90025e-17
-1.71093e-17
-1.93205e-17
-1.78248e-17
-1.82025e-17
-1.82418e-17
-1.80808e-17
-1.73211e-17
-1.83516e-17
-1.7643e-17
-1.70443e-17
-1.85217e-17
-1.75747e-17
-1.7763e-17
-1.90648e-17
-1.84276e-17
-1.73752e-17
-1.84514e-17
-1.91358e-17
-1.96334e-17
-1.59809e-17
-1.7208e-17
-1.96672e-17
-1.92624e-17
-1.8106e-17
-1.87528e-17
-1.85234e-17
-1.88211e-17
-1.81115e-17
-1.8158e-17
-1.82383e-17
-1.85742e-17
-1.95402e-17
-1.95585e-17
-1.67471e-17
-1.80533e-17
-1.83151e-17
-1.81597e-17
-1.89767e-17
-1.80181e-17
-1.91669e-17
-1.71004e-17
-1.75186e-17
-2.07501e-17
-1.90972e-17
-1.73036e-17
-1.60789e-17
-1.98742e-17
-1.65408e-17
-1.94516e-17
-1.86807e-17
-1.88799e-17
-1.8606e-17
-1.90574e-17
-1.80233e-17
-1.65628e-17
-1.74117e-17
-2.04379e-17
-1.74771e-17
-1.76144e-17
-1.71287e-17
-1.7272e-17
-1.90187e-17
-1.98179e-17
-2.0477e-17
-1.79665e-17
-1.70643e-17
-1.88925e-17
-1.89971e-17
-1.87224e-17
-1.79236e-17
-1.86305e-17
-1.93438e-17
-1.77611e-17
-1.88078e-17
-1.90779e-17
-1.65445e-17
-1.56077e-17
-1.69117e-17
-1.9047e-17
-1.72779e-17
-1.65734e-17
-1.7869e-17
-1.82349e-17
-1.92657e-17
-1.8077e-17
-1.92556e-17
-1.72226e-17
-1.83781e-17
-1.7834e-17
-1.91845e-17
-2.12766e-17
-1.84804e-17
-1.83204e-17
-1.79533e-17
-1.62849e-17
-1.84627e-17
-1.79738e-17
-1.87797e-17
-1.75219e-17
-1.98254e-17
-1.81028e-17
-1.87044e-17
-1.83526e-17
-1.80739e-17
-1.63488e-17
-1.93969e-17
-1.67306e-17
-1.87901e-17
-1.72365e-17
-1.82919e-17
-1.80387e-17
-1.85628e-17
-1.66406e-17
-1.79579e-17
-1.84646e-17
-1.83493e-17
-1.8012e-17
-2.08696e-17
-1.71715e-17
-1.83749e-17
-1.6078e-17
-1.91892e-17
-1.89376e-17
-2.04505e-17
-1.59573e-17
-1.6089e-17
-1.75446e-17
-2.02322e-17
-1.80255e-17
-2.01278e-17
-1.80387e-17
-2.05021e-17
-1.81131e-17
-1.8459e-17
-1.6376e-17
-1.99524e-17
-1.84639e-17
-1.83576e-17
-1.66734e-17
-1.86078e-17
-1.79041e-17
-1.79576e-17
-1.58709e-17
-3.87157e-17
-2.9066e-17
-3.28952e-17
-3.44986e-17
-3.38846e-17
-3.15743e-17
-3.43772e-17
-3.24376e-17
-3.49555e-17
-3.40102e-17
-3.39009e-17
-3.39227e-17
-3.18204e-17
-3.35888e-17
-3.49188e-17
-3.34717e-17
-3.39908e-17
-3.50335e-17
-3.07571e-17
-3.44766e-17
-3.46374e-17
-3.23773e-17
-3.31653e-17
-3.38351e-17
-3.54742e-17
-3.46891e-17
-3.43876e-17
-3.41201e-17
-3.42429e-17
-3.32732e-17
-3.67238e-17
-3.50927e-17
-3.42213e-17
-3.25958e-17
-3.39798e-17
-3.24533e-17
-3.55108e-17
-3.27342e-17
-3.44852e-17
-3.17569e-17
-3.41027e-17
-3.44229e-17
-3.57967e-17
-3.31521e-17
-3.27238e-17
-3.34971e-17
-3.29741e-17
-3.22391e-17
-3.42081e-17
-3.6522e-17
-3.26549e-17
-3.19396e-17
-3.61044e-17
-3.50616e-17
-3.22672e-17
-3.39564e-17
-3.55632e-17
-3.59359e-17
-3.28688e-17
-3.47788e-17
-3.66595e-17
-3.33656e-17
-3.4639e-17
-3.45532e-17
-3.53304e-17
-3.44564e-17
-3.20267e-17
-3.56623e-17
-3.12654e-17
-3.22654e-17
-3.16164e-17
-3.23405e-17
-3.61347e-17
-3.49057e-17
-3.43291e-17
-3.50195e-17
-3.35303e-17
-3.31608e-17
-3.50152e-17
-3.49586e-17
-3.29341e-17
-3.08483e-17
-3.63727e-17
-3.55084e-17
-3.66388e-17
-3.50728e-17
-3.1754e-17
-3.1233e-17
-3.55954e-17
-3.28578e-17
-3.21191e-17
-3.33941e-17
-3.89624e-17
-3.34061e-17
-3.20303e-17
-3.29378e-17
-3.47579e-17
-3.57244e-17
-3.1586e-17
-3.38942e-17
-3.52775e-17
-3.18942e-17
-3.4924e-17
-3.3115e-17
-3.31405e-17
-3.21912e-17
-3.33599e-17
-3.81919e-17
-3.67942e-17
-2.8793e-17
-3.38033e-17
-3.41727e-17
-3.08399e-17
-3.61927e-17
-3.44418e-17
-3.47965e-17
-3.50115e-17
-3.09616e-17
-3.33664e-17
-3.37922e-17
-3.6741e-17
-3.25553e-17
-3.51022e-17
-3.44649e-17
-3.28298e-17
-3.07173e-17
-3.16386e-17
-3.65972e-17
-3.40633e-17
-3.31288e-17
-3.2837e-17
-3.25877e-17
-3.03939e-17
-3.29766e-17
-3.40161e-17
-3.05775e-17
-3.51846e-17
-3.42986e-17
-3.27467e-17
-3.37654e-17
-3.52175e-17
-2.93564e-17
-3.54459e-17
-3.57329e-17
-3.30538e-17
-3.44312e-17
-3.18732e-17
-3.5102e-17
-3.20131e-17
-3.32285e-17
-3.51638e-17
-3.41925e-17
-3.61086e-17
-3.27793e-17
-3.49032e-17
-3.64957e-17
-3.61553e-17
-3.49902e-17
-3.36403e-17
-3.23104e-17
-3.15528e-17
-3.55358e-17
-3.37534e-17
-3.22324e-17
-3.44418e-17
-3.18109e-17
-3.53499e-17
-3.47829e-17
-3.30053e-17
-3.47629e-17
-3.61163e-17
-2.96069e-17
-3.38474e-17
-3.28896e-17
-3.68849e-17
-3.46516e-17
-3.35585e-17
-3.13605e-17
-3.15611e-17
-3.49366e-17
-3.61852e-17
-3.07536e-17
-3.12768e-17
-3.18177e-17
-3.40145e-17
-3.36918e-17
-3.28938e-17
-3.29984e-17
-3.42505e-17
-3.45694e-17
-3.6087e-17
-3.73482e-17
-3.31003e-17
-3.1462e-17
-3.21038e-17
-3.32675e-17
-3.47522e-17
-3.15172e-17
-3.24828e-17
-3.26968e-17
-3.453e-17
-3.37217e-17
-3.50017e-17
-3.65135e-17
-3.41709e-17
-3.2987e-17
-3.62925e-17
-3.23624e-17
-3.2927e-17
-3.38599e-17
-3.49669e-17
-3.18457e-17
-3.51605e-17
-3.36839e-17
-3.53259e-17
-3.569e-17
-3.31471e-17
-3.41035e-17
-3.81351e-17
-3.25134e-17
-3.45489e-17
-3.32014e-17
-3.54045e-17
-3.49097e-17
-3.58776e-17
-3.34169e-17
-3.41539e-17
-3.0903e-17
-3.44559e-17
-3.13647e-17
-3.65624e-17
-3.39382e-17
-3.69996e-17
-3.35789e-17
-3.51551e-17
-3.27221e-17
-3.49053e-17
-3.22342e-17
-3.5146e-17
-3.27859e-17
-3.50495e-17
-3.36929e-17
-3.53619e-17
-3.24523e-17
-3.45336e-17
-3.28204e-17
-3.56741e-17
-3.06809e-17
-3.52903e-17
-3.18436e-17
-3.5746e-17
-3.38555e-17
-3.83268e-17
-3.20873e-17
-3.52311e-17
-3.65912e-17
-7.62022e-17
-5.8679e-17
-6.62649e-17
-5.92603e-17
-6.58874e-17
-6.70178e-17
-6.31524e-17
-5.8621e-17
-5.87857e-17
-6.31775e-17
-6.22715e-17
-6.63933e-17
-6.79257e-17
-6.67668e-17
-6.1007e-17
-6.3146e-17
-6.26024e-17
-6.05413e-17
-5.67229e-17
-6.24128e-17
-6.0751e-17
-6.75359e-17
-5.94082e-17
-6.49118e-17
-6.28302e-17
-7.02416e-17
-6.84319e-17
-6.59643e-17
-5.79201e-17
-5.78355e-17
-6.21892e-17
-6.35221e-17
-6.35974e-17
-5.66828e-17
-6.6642e-17
-6.65033e-17
-6.76006e-17
-6.76781e-17
-6.21742e-17
-6.03163e-17
-6.15351e-17
-6.30285e-17
-6.60105e-17
-6.15225e-17
-6.38744e-17
-6.72626e-17
-6.04802e-17
-5.97591e-17
-6.38715e-17
-6.43951e-17
-6.26962e-17
-6.2725e-17
-6.37258e-17
-6.08578e-17
-5.97409e-17
-6.27219e-17
-6.65713e-17
-6.51978e-17
-5.86045e-17
-6.39295e-17
-6.39244e-17
-6.65977e-17
-6.00641e-17
-6.72952e-17
-6.85636e-17
-6.47304e-17
-6.51373e-17
-6.1929e-17
-6.09683e-17
-6.8473e-17
-6.02451e-17
-6.35664e-17
-6.58242e-17
-5.61789e-17
-6.23089e-17
-6.38681e-17
-6.52517e-17
-5.98449e-17
-6.24803e-17
-6.06045e-17
-6.00982e-17
-5.75218e-17
-6.14303e-17
-7.21015e-17
-6.15066e-17
-6.18487e-17
-6.75634e-17
-6.63267e-17
-5.87212e-17
-6.45209e-17
-6.55937e-17
-5.80478e-17
-6.99144e-17
-6.46504e-17
-6.56159e-17
-5.86726e-17
-6.379e-17
-6.68995e-17
-5.75684e-17
-6.18712e-17
-6.38977e-17
-5.97145e-17
-6.85367e-17
-6.29377e-17
-6.49501e-17
-6.44502e-17
-6.71537e-17
-6.26879e-17
-6.67843e-17
-5.98859e-17
-6.18332e-17
-6.25515e-17
-6.40732e-17
-5.84113e-17
-6.02196e-17
-6.66602e-17
-6.57137e-17
-6.67327e-17
-6.8236e-17
-5.90926e-17
-6.28936e-17
-6.56298e-17
-6.26142e-17
-5.94394e-17
-6.75614e-17
-6.50385e-17
-6.32187e-17
-7.0159e-17
-6.70131e-17
-6.16589e-17
-6.2678e-17
-6.11387e-17
-6.71812e-17
-6.67773e-17
-6.36793e-17
-5.58443e-17
-6.27928e-17
-6.18319e-17
-6.52271e-17
-6.37299e-17
-6.31498e-17
-6.33227e-17
-7.03169e-17
-6.2238e-17
-6.76111e-17
-6.55626e-17
-6.31394e-17
-5.96206e-17
-5.88452e-17
-6.88579e-17
-6.3714e-17
-6.27263e-17
-6.74209e-17
-5.89285e-17
-5.56372e-17
-6.29754e-17
-6.67115e-17
-6.00382e-17
-5.80861e-17
-6.54469e-17
-6.4938e-17
-7.03358e-17
-5.96201e-17
-6.0445e-17
-6.86137e-17
-6.10836e-17
-6.60128e-17
-6.39108e-17
-6.84973e-17
-6.02365e-17
-6.51759e-17
-6.40443e-17
-6.66631e-17
-6.4243e-17
-6.31399e-17
-5.78855e-17
-6.55495e-17
-7.02007e-17
-6.46599e-17
-6.01875e-17
-6.25959e-17
-6.32473e-17
-6.27946e-17
-5.87014e-17
-5.79156e-17
-6.56314e-17
-6.28673e-17
-6.63435e-17
-6.3432e-17
-6.79919e-17
-6.56195e-17
-5.96387e-17
-6.07918e-17
-6.82987e-17
-6.69998e-17
-6.36163e-17
-6.5599e-17
-6.2214e-17
-6.31131e-17
-6.0838e-17
-6.3937e-17
-5.6985e-17
-6.50412e-17
-6.64934e-17
-6.07357e-17
-6.17333e-17
-6.76142e-17
-5.80911e-17
-6.37661e-17
-5.99536e-17
-6.45627e-17
-5.9042e-17
-6.26219e-17
-5.71502e-17
-6.9016e-17
-6.08981e-17
-6.75408e-17
-6.01348e-17
-6.42517e-17
-5.78417e-17
-6.38135e-17
-5.95736e-17
-6.17339e-17
-6.1553e-17
-6.40823e-17
-5.91604e-17
-6.92129e-17
-5.98201e-17
-6.44283e-17
-5.75099e-17
-6.52338e-17
-5.96657e-17
-6.29487e-17
-6.4307e-17
-6.50761e-17
-5.95971e-17
-6.75381e-17
-5.96803e-17
-6.75487e-17
-5.88954e-17
-6.44657e-17
-5.89905e-17
-7.0421e-17
-5.97961e-17
-6.41691e-17
-5.9507e-17
-6.28228e-17
-6.22591e-17
-6.32361e-17
-5.26729e-17
-6.21221e-17
-6.25471e-17
-6.17973e-17
-5.42399e-17
-6.56243e-17
-6.03025e-17
-1.21809e-16
-1.14142e-16
-1.17004e-16
-1.16724e-16
-1.30801e-16
-1.18673e-16
-1.2241e-16
-1.09906e-16
-1.07313e-16
-1.24261e-16
-1.20325e-16
-1.16257e-16
-1.22252e-16
-1.18022e-16
-1.19349e-16
-1.1482e-16
-1.22986e-16
-1.22529e-16
-1.15902e-16
-1.21736e-16
-1.13656e-16
-1.24013e-16
-1.19616e-16
-1.19798e-16
-1.1545e-16
-1.23096e-16
-1.21274e-16
-1.2463e-16
-1.09655e-16
-1.18729e-16
-1.20565e-16
-1.21092e-16
-1.20361e-16
-1.11399e-16
-1.10222e-16
-1.16017e-16
-1.167e-16
-1.24243e-16
-1.16383e-16
-1.18759e-16
-1.08203e-16
-1.20136e-16
-1.2574e-16
-1.29358e-16
-1.33962e-16
-1.31013e-16
-1.16101e-16
-1.06581e-16
-1.15643e-16
-1.22975e-16
-1.2175e-16
-1.22794e-16
-1.20073e-16
-1.09507e-16
-1.10365e-16
-1.21877e-16
-1.14515e-16
-1.18602e-16
-1.14122e-16
-1.17695e-16
-1.21393e-16
-1.125e-16
-1.13915e-16
-1.19774e-16
-1.09731e-16
-1.10733e-16
-1.16476e-16
-1.12431e-16
-1.11466e-16
-1.15631e-16
-1.19585e-16
-1.24075e-16
-1.20544e-16
-1.11402e-16
-1.1796e-16
-1.17324e-16
-1.21376e-16
-1.20186e-16
-1.20287e-16
-1.16765e-16
-1.18843e-16
-1.23791e-16
-1.1495e-16
-1.15866e-16
-1.21193e-16
-1.14173e-16
-1.30568e-16
-1.10764e-16
-9.92357e-17
-1.16362e-16
-1.19766e-16
-1.1515e-16
-1.19386e-16
-1.08694e-16
-1.28272e-16
-1.15589e-16
-1.08977e-16
-1.23665e-16
-1.16569e-16
-1.15454e-16
-1.22818e-16
-1.05359e-16
-1.16179e-16
-1.08075e-16
-1.2389e-16
-1.31889e-16
-1.20861e-16
-1.09595e-16
-1.20217e-16
-1.15083e-16
-1.22258e-16
-1.1216e-16
-1.16699e-16
-1.15915e-16
-1.12845e-16
-1.12399e-16
-1.14614e-16
-1.22294e-16
-1.20603e-16
-1.19421e-16
-1.34314e-16
-1.25288e-16
-1.11304e-16
-1.14057e-16
-1.29306e-16
-1.20008e-16
-1.20985e-16
-1.17322e-16
-1.32565e-16
-1.05937e-16
-1.09734e-16
-1.18354e-16
-1.18099e-16
-1.22317e-16
-1.22656e-16
-1.22809e-16
-1.12174e-16
-1.1458e-16
-1.32205e-16
-1.0661e-16
-1.32977e-16
-1.23936e-16
-1.2732e-16
-1.12797e-16
-1.21567e-16
-1.27839e-16
-1.12001e-16
-1.22263e-16
-1.20204e-16
-1.24094e-16
-1.256e-16
-1.073e-16
-1.05895e-16
-1.19232e-16
-1.12768e-16
-1.2054e-16
-1.26596e-16
-1.12401e-16
-1.25703e-16
-1.24566e-16
-1.10635e-16
-1.16003e-16
-1.1743e-16
-1.17245e-16
-1.18867e-16
-1.07357e-16
-1.25e-16
-1.19677e-16
-1.0703e-16
-1.21209e-16
-1.15569e-16
-1.22087e-16
-1.13125e-16
-1.10304e-16
-1.18491e-16
-1.28069e-16
-1.08146e-16
-1.17143e-16
-1.21892e-16
-1.1428e-16
-1.23272e-16
-1.28255e-16
-1.24728e-16
-1.17172e-16
-1.24772e-16
-1.17713e-16
-1.13323e-16
-1.08448e-16
-1.16663e-16
-1.26601e-16
-1.24331e-16
-1.17769e-16
-1.18756e-16
-1.16298e-16
-1.235e-16
-1.16064e-16
-1.1367e-16
-1.14668e-16
-1.16042e-16
-1.11237e-16
-1.1763e-16
-1.04272e-16
-1.24582e-16
-1.28267e-16
-1.09273e-16
-1.20677e-16
-1.11398e-16
-1.00783e-16
-1.15736e-16
-1.17723e-16
-1.24249e-16
-1.1413e-16
-1.27218e-16
-1.17271e-16
-1.30837e-16
-1.06197e-16
-1.19405e-16
-1.16458e-16
-1.22303e-16
-1.13864e-16
-1.24477e-16
-1.08071e-16
-1.23252e-16
-1.13765e-16
-1.28325e-16
-1.09161e-16
-1.1791e-16
-1.21293e-16
-1.27111e-16
-1.14771e-16
-1.28896e-16
-1.16899e-16
-1.20765e-16
-1.15439e-16
-1.27408e-16
-1.08766e-16
-1.30606e-16
-1.20463e-16
-1.17251e-16
-1.13938e-16
-1.24072e-16
-1.21368e-16
-1.20642e-16
-1.18219e-16
-1.17594e-16
-1.00606e-16
-1.09524e-16
-1.18078e-16
-1.17904e-16
-1.11842e-16
-1.26527e-16
-1.20039e-16
-1.27259e-16
-1.12688e-16
-1.23521e-16
-1.15181e-16
-2.50111e-16
-2.01887e-16
-2.19997e-16
-2.16537e-16
-2.12993e-16
-2.26768e-16
-2.21955e-16
-2.31275e-16
-2.15715e-16
-2.15383e-16
-2.44811e-16
-2.26107e-16
-2.11764e-16
-2.23158e-16
-2.24437e-16
-2.35727e-16
-2.41196e-16
-2.19618e-16
-2.09103e-16
-2.17193e-16
-2.24187e-16
-2.30235e-16
-1.86975e-16
-2.27445e-16
-2.03901e-16
-2.03723e-16
-2.2172e-16
-2.23915e-16
-2.10445e-16
-2.15809e-16
-2.09742e-16
-2.47845e-16
-2.34694e-16
-2.23467e-16
-2.05504e-16
-2.24113e-16
-2.21179e-16
-2.26919e-16
-2.13413e-16
-2.23803e-16
-2.26277e-16
-2.29599e-16
-2.23153e-16
-2.22149e-16
-2.00517e-16
-2.15563e-16
-2.24636e-16
-2.33579e-16
-2.18572e-16
-2.22647e-16
-2.01486e-16
-2.37934e-16
-2.128e-16
-2.25179e-16
-2.27153e-16
-2.34094e-16
-2.26246e-16
-2.34398e-16
-2.2502e-16
-2.12587e-16
-2.21883e-16
-2.13274e-16
-2.04148e-16
-2.24029e-16
-2.12363e-16
-2.14679e-16
-2.21321e-16
-2.25863e-16
-2.10377e-16
-2.27922e-16
-2.36859e-16
-2.36353e-16
-2.10788e-16
-2.21189e-16
-2.20829e-16
-2.25663e-16
-2.32104e-16
-2.2633e-16
-2.25337e-16
-2.15955e-16
-2.26637e-16
-2.29385e-16
-2.12618e-16
-2.31429e-16
-2.08736e-16
-2.11952e-16
-2.39058e-16
-2.29895e-16
-2.26038e-16
-2.25158e-16
-2.13148e-16
-2.2873e-16
-2.27839e-16
-2.12265e-16
-2.28122e-16
-2.31015e-16
-2.31559e-16
-2.49635e-16
-2.42e-16
-2.06209e-16
-2.09321e-16
-2.09041e-16
-2.13801e-16
-2.18891e-16
-1.99946e-16
-2.26708e-16
-2.27226e-16
-2.13585e-16
-2.31397e-16
-2.25904e-16
-2.07072e-16
-2.01351e-16
-2.18643e-16
-2.19677e-16
-2.23388e-16
-2.19194e-16
-2.16891e-16
-2.10935e-16
-2.18376e-16
-2.31141e-16
-2.25166e-16
-1.90945e-16
-1.99605e-16
-2.24812e-16
-2.09521e-16
-2.18544e-16
-2.39479e-16
-2.12197e-16
-2.26822e-16
-2.17676e-16
-2.25572e-16
-2.1563e-16
-2.3771e-16
-2.33826e-16
-2.28756e-16
-2.22566e-16
-2.21084e-16
-2.24293e-16
-2.28489e-16
-2.12379e-16
-2.2975e-16
-2.14395e-16
-2.15795e-16
-2.06673e-16
-2.11525e-16
-2.11401e-16
-2.21981e-16
-2.12075e-16
-2.44809e-16
-2.30676e-16
-1.85843e-16
-2.1081e-16
-2.15449e-16
-2.31859e-16
-2.36558e-16
-2.29798e-16
-2.14388e-16
-2.12814e-16
-2.04631e-16
-2.12854e-16
-2.1628e-16
-2.2719e-16
-2.43852e-16
-2.20353e-16
-2.21736e-16
-2.25477e-16
-2.14836e-16
-2.18085e-16
-2.47953e-16
-2.20254e-16
-2.16602e-16
-2.32623e-16
-1.97149e-16
-2.09681e-16
-2.42584e-16
-2.40817e-16
-2.12363e-16
-2.27586e-16
-2.17234e-16
-2.16185e-16
-2.39852e-16
-2.29128e-16
-2.05864e-16
-2.17139e-16
-2.35935e-16
-2.10247e-16
-2.24627e-16
-1.98549e-16
-2.31014e-16
-2.26211e-16
-2.0138e-16
-2.5258e-16
-2.33019e-16
-1.89024e-16
-2.08904e-16
-2.09396e-16
-2.05126e-16
-2.27675e-16
-2.1961e-16
-2.09442e-16
-2.17552e-16
-2.23776e-16
-2.10417e-16
-2.30371e-16
-2.25764e-16
-2.37583e-16
-2.15599e-16
-2.1528e-16
-2.39274e-16
-2.19198e-16
-2.31113e-16
-2.05438e-16
-2.311e-16
-2.30219e-16
-2.10995e-16
-2.14426e-16
-2.53167e-16
-2.19452e-16
-2.28192e-16
-2.21653e-16
-2.31772e-16
-2.23783e-16
-2.44414e-16
-2.08261e-16
-2.30089e-16
-2.03457e-16
-2.11161e-16
-2.06362e-16
-2.39796e-16
-2.09766e-16
-2.33783e-16
-2.11741e-16
-2.37821e-16
-2.25599e-16
-2.33235e-16
-2.01954e-16
-2.0513e-16
-2.17056e-16
-2.32188e-16
-2.07092e-16
-2.41591e-16
-2.24137e-16
-2.07021e-16
-1.96561e-16
-2.33803e-16
-2.09772e-16
-2.46213e-16
-2.11959e-16
-2.17725e-16
-2.2556e-16
-2.38801e-16
-2.00244e-16
-2.36874e-16
-2.29232e-16
-2.34828e-16
-2.0714e-16
-4.50807e-16
-4.0441e-16
-4.26748e-16
-4.24714e-16
-4.11655e-16
-4.33395e-16