# vtk DataFile Version 1.0
Electron Density - Current Sheet 
ASCII
DATASET STRUCTURED_POINTS
DIMENSIONS 256 128 1
ORIGIN 0 0 0
SPACING 0.15625 0.15625 1
POINT_DATA 32768
SCALARS rhoe float
LOOKUP_TABLE default
-1.84665e-18
-1.78702e-18
-1.88003e-18
-1.63334e-18
-1.81936e-18
-1.80693e-18
-1.89906e-18
-1.96597e-18
-1.95916e-18
-1.89907e-18
-1.93831e-18
-1.92027e-18
-1.77051e-18
-1.69499e-18
-2.00975e-18
-1.93568e-18
-1.93002e-18
-1.84589e-18
-1.75891e-18
-2.0479e-18
-2.03332e-18
-2.052e-18
-1.89489e-18
-1.99776e-18
-2.08793e-18
-1.77725e-18
-1.88045e-18
-1.70346e-18
-1.8407e-18
-1.95941e-18
-1.9152e-18
-1.89163e-18
-1.7809e-18
-1.8178e-18
-2.00311e-18
-1.63218e-18
-1.89211e-18
-2.11102e-18
-1.87536e-18
-1.66684e-18
-1.80891e-18
-1.71032e-18
-2.03137e-18
-1.89058e-18
-1.50873e-18
-1.7799e-18
-1.87341e-18
-1.87e-18
-1.97052e-18
-1.89006e-18
-1.83539e-18
-1.95787e-18
-1.93321e-18
-1.66864e-18
-1.80042e-18
-2.11152e-18
-1.673e-18
-1.64564e-18
-1.58846e-18
-1.73475e-18
-1.61062e-18
-1.75819e-18
-1.98198e-18
-1.84325e-18
-1.98775e-18
-1.59146e-18
-1.77016e-18
-1.95119e-18
-1.9391e-18
-1.89872e-18
-1.99668e-18
-1.83995e-18
-1.54884e-18
-1.84176e-18
-1.75207e-18
-2.11547e-18
-1.94195e-18
-1.72262e-18
-1.68537e-18
-1.86518e-18
-1.82883e-18
-2.01907e-18
-1.99609e-18
-1.6744e-18
-2.17085e-18
-1.79179e-18
-1.74339e-18
-2.03392e-18
-1.90353e-18
-1.83316e-18
-1.88756e-18
-1.78677e-18
-1.72781e-18
-1.77291e-18
-2.15292e-18
-1.80714e-18
-1.92179e-18
-1.84928e-18
-2.03843e-18
-1.75842e-18
-1.63587e-18
-1.77334e-18
-1.95244e-18
-1.96094e-18
-1.94265e-18
-1.95721e-18
-1.76465e-18
-1.79202e-18
-1.93771e-18
-2.11393e-18
-1.80397e-18
-1.90048e-18
-1.80303e-18
-1.57152e-18
-1.80271e-18
-2.03072e-18
-1.99428e-18
-1.94629e-18
-1.76973e-18
-2.04318e-18
-1.96976e-18
-1.73663e-18
-1.79849e-18
-1.75681e-18
-1.71101e-18
-1.96286e-18
-1.73065e-18
-1.88142e-18
-1.65502e-18
-1.8876e-18
-1.93633e-18
-1.85004e-18
-1.96173e-18
-2.02824e-18
-1.84012e-18
-1.95579e-18
-1.85628e-18
-1.80223e-18
-1.82405e-18
-1.90573e-18
-1.66972e-18
-2.05523e-18
-1.86507e-18
-1.6435e-18
-1.81782e-18
-1.7559e-18
-1.84527e-18
-1.83606e-18
-2.13622e-18
-1.80705e-18
-1.99911e-18
-1.69481e-18
-1.89028e-18
-2.02842e-18
-1.94996e-18
-1.72203e-18
-1.91557e-18
-2.0802e-18
-1.97225e-18
-1.83975e-18
-1.69692e-18
-1.94718e-18
-1.95616e-18
-2.00287e-18
-2.05156e-18
-1.89497e-18
-1.74363e-18
-1.79799e-18
-1.97725e-18
-1.81682e-18
-2.01332e-18
-1.88934e-18
-2.08029e-18
-1.65309e-18
-2.10475e-18
-2.04543e-18
-1.92611e-18
-1.90004e-18
-1.99309e-18
-1.87371e-18
-1.85347e-18
-1.77152e-18
-1.96014e-18
-2.01602e-18
-1.99851e-18
-1.50184e-18
-1.71191e-18
-1.88095e-18
-1.92177e-18
-1.86024e-18
-1.89707e-18
-1.96114e-18
-1.71357e-18
-1.9164e-18
-1.92552e-18
-1.84522e-18
-1.87062e-18
-1.74587e-18
-1.75097e-18
-1.67756e-18
-1.87976e-18
-1.98537e-18
-1.68583e-18
-1.749e-18
-1.57237e-18
-1.93021e-18
-1.91515e-18
-1.7803e-18
-1.79047e-18
-1.64583e-18
-1.91283e-18
-1.80504e-18
-2.01055e-18
-1.7148e-18
-1.80688e-18
-1.6349e-18
-1.78418e-18
-1.95017e-18
-2.12983e-18
-1.80377e-18
-1.90376e-18
-1.86427e-18
-2.01092e-18
-1.78495e-18
-2.03386e-18
-1.81898e-18
-1.77796e-18
-1.73802e-18
-1.98612e-18
-1.96263e-18
-2.02764e-18
-1.85685e-18
-1.85367e-18
-2.04544e-18
-1.94809e-18
-1.74724e-18
-1.84674e-18
-1.95909e-18
-1.67405e-18
-1.75574e-18
-2.00278e-18
-1.87829e-18
-1.8984e-18
-1.77207e-18
-1.95685e-18
-1.71177e-18
-1.85325e-18
-1.8494e-18
-2.03205e-18
-1.79149e-18
-1.88644e-18
-1.87059e-18
-1.81915e-18
-1.66488e-18
-2.09473e-18
-1.5987e-18
-2.78193e-18
-2.84337e-18
-3.00473e-18
-3.00673e-18
-2.7711e-18
-2.99938e-18
-2.61253e-18
-2.82808e-18
-2.75012e-18
-2.58554e-18
-2.65666e-18
-2.92745e-18
-3.04254e-18
-2.6743e-18
-2.62363e-18
-2.85341e-18
-2.91641e-18
-2.98558e-18
-2.92704e-18
-2.63231e-18
-2.7883e-18
-2.74917e-18
-2.82325e-18
-2.7038e-18
-3.08774e-18
-2.65834e-18
-2.83236e-18
-2.57499e-18
-2.86964e-18
-2.95576e-18
-2.92806e-18
-2.55149e-18
-2.79647e-18
-2.79988e-18
-2.94553e-18
-2.79486e-18
-3.068e-18
-2.84275e-18
-2.88582e-18
-2.77338e-18
-2.78899e-18
-2.65557e-18
-3.09385e-18
-2.73767e-18
-2.73748e-18
-2.81249e-18
-2.9854e-18
-2.91044e-18
-2.48909e-18
-2.92147e-18
-2.87268e-18
-2.77763e-18
-2.88914e-18
-2.93856e-18
-2.57843e-18
-2.64921e-18
-2.84906e-18
-2.80902e-18
-2.69121e-18
-2.86231e-18
-2.8708e-18
-2.96645e-18
-2.81453e-18
-2.63921e-18
-2.93407e-18
-2.76435e-18
-3.01773e-18
-2.89834e-18
-2.72284e-18
-2.79981e-18
-2.99437e-18
-2.82366e-18
-2.88555e-18
-2.93272e-18
-2.89074e-18
-2.67731e-18
-2.60317e-18
-2.77212e-18
-2.84546e-18
-2.78123e-18
-2.882e-18
-2.79696e-18
-2.68488e-18
-2.54917e-18
-2.53591e-18
-2.85521e-18
-2.98361e-18
-2.91674e-18
-2.7914e-18
-2.67139e-18
-3.16561e-18
-2.77843e-18
-2.55418e-18
-2.73126e-18
-2.91936e-18
-2.91751e-18
-2.86301e-18
-2.77624e-18
-2.82656e-18
-2.79347e-18
-2.67006e-18
-2.96959e-18
-2.8453e-18
-3.01953e-18
-2.66706e-18
-2.64028e-18
-2.73684e-18
-2.96487e-18
-2.93257e-18
-2.81527e-18
-2.63905e-18
-2.82568e-18
-2.93735e-18
-2.7325e-18
-2.74208e-18
-2.77312e-18
-2.78196e-18
-3.01038e-18
-2.44308e-18
-3.02262e-18
-2.89972e-18
-2.94386e-18
-3.00566e-18
-2.28596e-18
-2.9275e-18
-3.00507e-18
-3.01219e-18
-3.06516e-18
-2.86881e-18
-2.74513e-18
-2.7635e-18
-2.96193e-18
-2.92426e-18
-2.84623e-18
-2.39545e-18
-2.64694e-18
-2.92766e-18
-2.91519e-18
-2.78874e-18
-2.8806e-18
-2.53825e-18
-2.79931e-18
-2.74584e-18
-3.11623e-18
-3.05883e-18
-2.92536e-18
-2.63149e-18
-2.85305e-18
-2.73451e-18
-2.72506e-18
-2.9344e-18
-3.07194e-18
-2.90428e-18
-2.93877e-18
-2.83105e-18
-2.92008e-18
-2.98518e-18
-2.72005e-18
-2.80622e-18
-2.8365e-18
-2.61038e-18
-2.94768e-18
-2.8289e-18
-2.77353e-18
-3.03412e-18
-2.93404e-18
-2.62305e-18
-2.88102e-18
-2.63004e-18
-2.80268e-18
-2.87656e-18
-2.9929e-18
-2.83095e-18
-2.66198e-18
-2.7593e-18
-2.98978e-18
-2.76012e-18
-2.90553e-18
-2.78656e-18
-2.72557e-18
-2.88266e-18
-2.55608e-18
-2.77403e-18
-2.77927e-18
-2.913e-18
-2.70845e-18
-2.54131e-18
-2.65826e-18
-2.66871e-18
-2.87411e-18
-2.88659e-18
-2.72803e-18
-2.63721e-18
-2.83538e-18
-2.94634e-18
-2.88627e-18
-2.80365e-18
-2.73165e-18
-2.78346e-18
-2.8474e-18
-2.78482e-18
-2.92752e-18
-2.87014e-18
-2.67355e-18
-2.67175e-18
-2.84354e-18
-2.86429e-18
-2.90886e-18
-3.08358e-18
-2.82767e-18
-3.2347e-18
-2.79784e-18
-2.82018e-18
-2.77459e-18
-2.90031e-18
-2.62863e-18
-2.85382e-18
-2.62683e-18
-2.90887e-18
-2.79984e-18
-3.11965e-18
-2.82504e-18
-3.04121e-18
-2.80742e-18
-2.86428e-18
-2.74768e-18
-2.8854e-18
-2.65241e-18
-2.82296e-18
-2.63428e-18
-2.7013e-18
-2.53077e-18
-2.80876e-18
-2.62976e-18
-3.15082e-18
-2.9002e-18
-2.74935e-18
-2.47125e-18
-2.82577e-18
-2.68441e-18
-2.99312e-18
-2.73069e-18
-2.7691e-18
-2.59173e-18
-3.00985e-18
-2.49905e-18
-2.88761e-18
-2.76348e-18
-2.98369e-18
-2.57184e-18
-2.86356e-18
-2.77818e-18
-2.94296e-18
-2.68631e-18
-3.22536e-18
-2.92698e-18
-5.3549e-18
-5.2466e-18
-5.79832e-18
-5.0965e-18
-5.25313e-18
-5.83672e-18
-5.0013e-18
-4.73783e-18
-5.22352e-18
-5.17722e-18
-4.75062e-18
-5.17104e-18
-5.71067e-18
-5.4183e-18
-5.17556e-18
-4.97801e-18
-5.47451e-18
-5.11815e-18
-5.52301e-18
-4.6623e-18
-4.86408e-18
-4.9483e-18
-5.64562e-18
-5.21628e-18
-5.01542e-18
-4.91287e-18
-5.14927e-18
-4.88451e-18
-4.82589e-18
-5.21345e-18
-4.87398e-18
-5.04624e-18
-5.07082e-18
-5.20648e-18
-5.04686e-18
-5.07161e-18
-5.35577e-18
-5.22863e-18
-5.64357e-18
-5.09997e-18
-4.90068e-18
-5.25573e-18
-5.73766e-18
-4.67447e-18
-5.37966e-18
-5.1904e-18
-5.46074e-18
-5.3424e-18
-5.03006e-18
-4.95521e-18
-5.22598e-18
-5.06213e-18
-5.32026e-18
-5.14449e-18
-4.8481e-18
-5.23749e-18
-4.89215e-18
-5.40552e-18
-5.27803e-18
-5.68835e-18
-5.35144e-18
-5.26726e-18
-5.16229e-18
-4.98439e-18
-5.02325e-18
-5.22564e-18
-5.11403e-18
-5.56453e-18
-4.6819e-18
-4.87692e-18
-5.01522e-18
-5.05977e-18
-5.03368e-18
-5.33572e-18
-5.43053e-18
-5.50327e-18
-5.39931e-18
-5.30359e-18
-5.27121e-18
-5.56885e-18
-4.94687e-18
-5.12044e-18
-4.66854e-18
-5.33009e-18
-4.85202e-18
-5.15823e-18
-5.14325e-18
-4.95226e-18
-4.79972e-18
-5.18687e-18
-5.28512e-18
-4.965e-18
-5.32427e-18
-5.44409e-18
-5.02309e-18
-5.11315e-18
-5.26396e-18
-5.02446e-18
-4.96952e-18
-4.9594e-18
-4.81854e-18
-5.07381e-18
-5.5373e-18
-4.79736e-18
-4.97887e-18
-4.76422e-18
-4.9141e-18
-5.00878e-18
-5.37554e-18
-5.1098e-18
-5.14973e-18
-5.31061e-18
-5.32901e-18
-4.89636e-18
-5.34821e-18
-5.10572e-18
-5.003e-18
-5.25981e-18
-5.07342e-18
-5.14964e-18
-5.19787e-18
-5.21839e-18
-5.16663e-18
-5.11924e-18
-5.31382e-18
-4.80495e-18
-5.53149e-18
-5.04757e-18
-4.86421e-18
-5.32713e-18
-5.59975e-18
-4.86167e-18
-4.83252e-18
-5.17254e-18
-5.38811e-18
-5.34004e-18
-5.00178e-18
-5.01991e-18
-4.95403e-18
-5.05923e-18
-4.99286e-18
-4.91635e-18
-5.15239e-18
-4.8641e-18
-5.15644e-18
-5.65556e-18
-4.92038e-18
-5.54018e-18
-5.05916e-18
-5.03495e-18
-4.82783e-18
-4.97409e-18
-4.7751e-18
-5.19201e-18
-5.23908e-18
-4.81561e-18
-4.90726e-18
-5.1932e-18
-5.60496e-18
-5.45616e-18
-5.29603e-18
-5.15848e-18
-5.16879e-18
-4.54791e-18
-5.01742e-18
-5.32389e-18
-5.45048e-18
-5.26159e-18
-4.81076e-18
-4.83271e-18
-5.2569e-18
-5.12002e-18
-5.26696e-18
-5.19928e-18
-4.95499e-18
-5.17339e-18
-5.33762e-18
-4.98634e-18
-5.37402e-18
-4.83862e-18
-5.21856e-18
-5.54309e-18
-5.07886e-18
-4.75124e-18
-5.73439e-18
-5.15607e-18
-5.13978e-18
-4.67835e-18
-5.44869e-18
-5.0386e-18
-5.18539e-18
-5.28125e-18
-5.22884e-18
-5.4746e-18
-5.36177e-18
-5.44059e-18
-5.48664e-18
-4.78731e-18
-4.77104e-18
-5.15973e-18
-5.4475e-18
-4.89855e-18
-5.03152e-18
-5.51759e-18
-5.19839e-18
-4.86042e-18
-5.32031e-18
-5.52953e-18
-5.58551e-18
-4.49426e-18
-5.01391e-18
-4.88816e-18
-5.13634e-18
-4.9471e-18
-5.45098e-18
-4.94684e-18
-5.34434e-18
-4.78183e-18
-5.62593e-18
-5.05906e-18
-5.6004e-18
-4.89328e-18
-5.70575e-18
-4.79238e-18
-5.17063e-18
-4.85779e-18
-5.44131e-18
-5.22367e-18
-5.90067e-18
-5.10579e-18
-5.36481e-18
-4.6602e-18
-5.09368e-18
-5.17022e-18
-5.22021e-18
-5.2342e-18
-5.77004e-18
-5.15757e-18
-5.74911e-18
-4.81356e-18
-5.50256e-18
-5.1197e-18
-5.48391e-18
-5.02718e-18
-5.7881e-18
-5.03504e-18
-5.24784e-18
-4.8406e-18
-5.29073e-18
-5.02586e-18
-5.54289e-18
-5.37086e-18
-5.37239e-18
-4.99989e-18
-5.20947e-18
-5.4788e-18
-1.0621e-17
-9.52589e-18
-9.33737e-18
-9.36505e-18
-9.59132e-18
-9.26815e-18
-9.66554e-18
-9.12383e-18
-1.02631e-17
-9.11721e-18
-9.92028e-18
-1.05957e-17
-9.7944e-18
-9.13841e-18
-1.02391e-17
-9.44057e-18
-8.70918e-18
-1.06753e-17
-9.43282e-18
-8.90504e-18
-9.74602e-18
-9.60155e-18
-1.02002e-17
-9.73459e-18
-9.75253e-18
-9.79105e-18
-9.81867e-18
-9.79768e-18
-1.00818e-17
-1.04916e-17
-9.74581e-18
-9.46584e-18
-9.75723e-18
-9.9777e-18
-9.97215e-18
-1.014e-17
-1.05453e-17
-1.00061e-17
-9.20353e-18
-1.00639e-17
-1.03186e-17
-8.66244e-18
-9.60899e-18
-9.96156e-18
-9.38586e-18
-9.77725e-18
-9.85609e-18
-9.99609e-18
-9.87838e-18
-9.8331e-18
-9.75095e-18
-9.81181e-18
-1.0184e-17
-9.36189e-18
-9.59562e-18
-1.03394e-17
-1.00788e-17
-9.34782e-18
-9.60324e-18
-9.94173e-18
-9.89122e-18
-9.80312e-18
-8.83216e-18
-9.90609e-18
-8.77801e-18
-8.75721e-18
-1.01604e-17
-9.99829e-18
-9.81682e-18
-1.01844e-17
-9.34186e-18
-9.56933e-18
-9.96974e-18
-9.59935e-18
-9.13072e-18
-9.6337e-18
-9.37994e-18
-1.00525e-17
-9.79673e-18
-9.6464e-18
-9.514e-18
-1.01284e-17
-9.74638e-18
-9.82706e-18
-8.76748e-18
-9.21999e-18
-9.19906e-18
-9.93149e-18
-9.68402e-18
-1.00411e-17
-9.99758e-18
-1.0093e-17
-9.51648e-18
-1.01817e-17
-8.97409e-18
-9.42722e-18
-9.96018e-18
-1.00298e-17
-1.00283e-17
-1.00496e-17
-9.38364e-18
-9.24569e-18
-9.2747e-18
-9.76418e-18
-9.67983e-18
-9.42626e-18
-1.06061e-17
-1.06719e-17
-9.0891e-18
-8.86122e-18
-9.4875e-18
-1.01244e-17
-9.70242e-18
-9.29099e-18
-1.10722e-17
-9.49649e-18
-8.49278e-18
-1.03495e-17
-1.04257e-17
-9.79737e-18
-1.01579e-17
-9.31214e-18
-9.1134e-18
-9.60282e-18
-8.72747e-18
-9.5551e-18
-1.04864e-17
-9.91935e-18
-9.48041e-18
-9.57991e-18
-9.52548e-18
-1.03347e-17
-1.04527e-17
-9.21341e-18
-1.03156e-17
-1.02319e-17
-9.20691e-18
-8.91432e-18
-9.56361e-18
-9.79068e-18
-9.75281e-18
-9.6259e-18
-1.07783e-17
-9.78997e-18
-9.41552e-18
-9.73459e-18
-9.2206e-18
-9.9143e-18
-9.83346e-18
-8.81292e-18
-9.57189e-18
-9.84881e-18
-9.60076e-18
-9.81468e-18
-1.01682e-17
-9.55064e-18
-9.61224e-18
-9.42833e-18
-1.03551e-17
-9.59661e-18
-9.14525e-18
-9.43988e-18
-9.1274e-18
-9.42565e-18
-1.01851e-17
-1.06909e-17
-1.02272e-17
-9.99577e-18
-9.30307e-18
-9.98197e-18
-9.34555e-18
-1.05307e-17
-1.00875e-17
-9.24787e-18
-8.96931e-18
-9.4996e-18
-1.10167e-17
-9.51372e-18
-9.43344e-18
-9.49671e-18
-9.72702e-18
-9.83425e-18
-9.44684e-18
-9.85179e-18
-9.88082e-18
-9.90986e-18
-1.06913e-17
-1.00832e-17
-9.91921e-18
-9.16536e-18
-9.59811e-18
-1.07762e-17
-8.79995e-18
-9.81495e-18
-9.84845e-18
-1.01275e-17
-9.89798e-18
-9.48019e-18
-9.30452e-18
-9.43403e-18
-9.68774e-18
-9.95692e-18
-9.76365e-18
-1.01397e-17
-9.99574e-18
-9.30152e-18
-9.4628e-18
-9.55439e-18
-9.78073e-18
-8.82486e-18
-1.03567e-17
-9.62259e-18
-1.0994e-17
-9.31518e-18
-1.03963e-17
-8.68824e-18
-1.02868e-17
-9.45613e-18
-1.00721e-17
-9.58155e-18
-1.0664e-17
-8.88287e-18
-9.27048e-18
-9.42577e-18
-9.60825e-18
-9.56718e-18
-1.13159e-17
-9.34852e-18
-1.0208e-17
-9.60067e-18
-1.00572e-17
-8.56246e-18
-9.8979e-18
-9.32522e-18
-1.02964e-17
-9.40285e-18
-9.87038e-18
-8.68597e-18
-1.11596e-17
-9.48918e-18
-9.31098e-18
-9.38081e-18
-9.33331e-18
-9.18873e-18
-1.00028e-17
-8.74596e-18
-1.01086e-17
-1.0345e-17
-1.04225e-17
-9.91213e-18
-1.002e-17
-9.26006e-18
-9.99846e-18
-8.74209e-18
-1.05567e-17
-9.14622e-18
-1.95278e-17
-1.95147e-17
-1.80072e-17
-1.78126e-17
-1.87355e-17
-1.89768e-17
-1.82122e-17
-1.85084e-17
-1.91733e-17
-1.75885e-17
-1.77516e-17
-1.96593e-17
-1.94718e-17
-1.70902e-17
-1.82004e-17
-1.85133e-17
-1.91607e-17
-1.92248e-17
-1.69023e-17
-1.92251e-17
-1.95823e-17
-1.8305e-17
-1.8562e-17
-1.67919e-17
-1.76396e-17
-1.86807e-17
-1.84303e-17
-1.66518e-17
-1.85171e-17
-1.89068e-17
-1.82662e-17
-1.83429e-17
-1.86143e-17
-1.76871e-17
-1.73646e-17
-1.90437e-17
-1.8046e-17
-1.84243e-17
-1.73399e-17
-1.64728e-17
-1.8341e-17
-1.72847e-17
-1.88347e-17
-1.91676e-17
-1.72409e-17
-2.06904e-17
-1.84029e-17
-1.73712e-17
-1.84706e-17
-1.8127e-17
-1.70695e-17
-1.96436e-17
-1.8048e-17
-1.78794e-17
-1.79835e-17
-1.81155e-17
-1.75268e-17
-1.86663e-17
-1.87888e-17
-1.66962e-17
-1.90917e-17
-1.88979e-17
-1.75446e-17
-1.88757e-17
-1.68582e-17
-1.70327e-17
-1.8723e-17
-1.93108e-17
-1.73042e-17
-1.89356e-17
-1.90785e-17
-1.77287e-17
-1.84089e-17
-1.78181e-17
-1.71116e-17
-1.84043e-17
-1.86343e-17
-1.80441e-17
-1.91591e-17
-1.91206e-17
-1.85939e-17
-1.79734e-17
-1.88449e-17
-1.82021e-17
-1.88277e-17
-1.82535e-17
-1.66524e-17
-1.93827e-17
-1.99609e-17
-1.76365e-17
-1.81144e-17
-1.96961e-17
-1.78764e-17
-1.69901e-17
-1.6813e-17
-1.89581e-17
-1.99636e-17
-1.73634e-17
-1.79257e-17
-2.06043e-17
-1.88273e-17
-1.68572e-17
-1.92624e-17
-1.85773e-17
-1.6638e-17
-1.83647e-17
-1.81823e-17
-1.72837e-17
-1.94634e-17
-1.79582e-17
-1.95082e-17
-1.94351e-17
-1.9003e-17
-1.71116e-17
-1.93179e-17
-1.78239e-17
-1.82002e-17
-1.8242e-17
-1.80842e-17
-1.73203e-17
-1.83525e-17
-1.76424e-17
-1.70441e-17
-1.85228e-17
-1.75761e-17
-1.77642e-17
-1.90654e-17
-1.84285e-17
-1.73737e-17
-1.84518e-17
-1.91359e-17
-1.96321e-17
-1.59824e-17
-1.72059e-17
-1.96704e-17
-1.92639e-17
-1.81059e-17
-1.87516e-17
-1.85249e-17
-1.88226e-17
-1.81746e-17
-1.80833e-17
-1.8253e-17
-1.85744e-17
-1.95377e-17
-1.95483e-17
-1.67542e-17
-1.80529e-17
-1.83159e-17
-1.81581e-17
-1.89755e-17
-1.80189e-17
-1.91665e-17
-1.70965e-17
-1.752e-17
-2.07473e-17
-1.90918e-17
-1.73003e-17
-1.60748e-17
-1.98723e-17
-1.65394e-17
-1.94503e-17
-1.8677e-17
-1.88779e-17
-1.86053e-17
-1.90591e-17
-1.80273e-17
-1.65669e-17
-1.74123e-17
-2.0435e-17
-1.74757e-17
-1.75249e-17
-1.72198e-17
-1.72708e-17
-1.90164e-17
-1.98183e-17
-2.04729e-17
-1.79687e-17
-1.70695e-17
-1.88938e-17
-1.89972e-17
-1.87228e-17
-1.7923e-17
-1.86341e-17
-1.93422e-17
-1.77598e-17
-1.88254e-17
-1.90561e-17
-1.65497e-17
-1.56056e-17
-1.69088e-17
-1.9043e-17
-1.72773e-17
-1.65757e-17
-1.78728e-17
-1.82346e-17
-1.92663e-17
-1.80817e-17
-1.92518e-17
-1.72396e-17
-1.83565e-17
-1.78309e-17
-1.91866e-17
-2.12821e-17
-1.84823e-17
-1.83155e-17
-1.79539e-17
-1.62819e-17
-1.84614e-17
-1.79706e-17
-1.87819e-17
-1.75248e-17
-1.98271e-17
-1.81038e-17
-1.87031e-17
-1.83517e-17
-1.8072e-17
-1.63485e-17
-1.93991e-17
-1.67292e-17
-1.87895e-17
-1.72371e-17
-1.8293e-17
-1.80396e-17
-1.85648e-17
-1.66424e-17
-1.79579e-17
-1.84661e-17
-1.8354e-17
-1.80104e-17
-2.08687e-17
-1.71721e-17
-1.83781e-17
-1.60765e-17
-1.91888e-17
-1.89377e-17
-2.04503e-17
-1.59605e-17
-1.60895e-17
-1.75458e-17
-2.02352e-17
-1.80252e-17
-2.01274e-17
-1.80395e-17
-2.05062e-17
-1.81117e-17
-1.84614e-17
-1.63747e-17
-1.99535e-17
-1.8468e-17
-1.83607e-17
-1.66759e-17
-1.86032e-17
-1.79041e-17
-1.87977e-17
-1.66493e-17
-3.55358e-17
-3.09114e-17
-3.26218e-17
-3.44858e-17
-3.38894e-17
-3.15716e-17
-3.43697e-17
-3.24172e-17
-3.49619e-17
-3.40304e-17
-3.38755e-17
-3.39319e-17
-3.18262e-17
-3.35903e-17
-3.49164e-17
-3.34898e-17
-3.39571e-17
-3.50375e-17
-3.07733e-17
-3.44884e-17
-3.46371e-17
-3.23629e-17
-3.31745e-17
-3.38227e-17
-3.54936e-17
-3.46893e-17
-3.43843e-17
-3.41199e-17
-3.42174e-17
-3.33014e-17
-3.67439e-17
-3.50587e-17
-3.42161e-17
-3.25902e-17
-3.39772e-17
-3.24645e-17
-3.55161e-17
-3.27231e-17
-3.44917e-17
-3.17599e-17
-3.40991e-17
-3.44214e-17
-3.57959e-17
-3.31596e-17
-3.27173e-17
-3.34943e-17
-3.29681e-17
-3.22371e-17
-3.4209e-17
-3.65e-17
-3.26799e-17
-3.19418e-17
-3.61096e-17
-3.50611e-17
-3.23729e-17
-3.38467e-17
-3.55612e-17
-3.59321e-17
-3.28291e-17
-3.48114e-17
-3.66486e-17
-3.33607e-17
-3.46489e-17
-3.45556e-17
-3.53292e-17
-3.44614e-17
-3.20281e-17
-3.56632e-17
-3.12695e-17
-3.22705e-17
-3.16165e-17
-3.23391e-17
-3.61338e-17
-3.49044e-17
-3.43222e-17
-3.50207e-17
-3.35376e-17
-3.31587e-17
-3.50183e-17
-3.49504e-17
-3.29297e-17
-3.08459e-17
-3.64416e-17
-3.54375e-17
-3.66466e-17
-3.50679e-17
-3.17537e-17
-3.12362e-17
-3.55995e-17
-3.2858e-17
-3.21451e-17
-3.33745e-17
-3.8993e-17
-3.3378e-17
-3.20337e-17
-3.29306e-17
-3.4764e-17
-3.57266e-17
-3.15882e-17
-3.38435e-17
-3.53344e-17
-3.18927e-17
-3.49296e-17
-3.31087e-17
-3.31426e-17
-3.21935e-17
-3.33606e-17
-3.81882e-17
-3.67911e-17
-2.87995e-17
-3.38131e-17
-3.41736e-17
-3.08338e-17
-3.61805e-17
-3.44408e-17
-3.47945e-17
-3.50178e-17
-3.09645e-17
-3.33688e-17
-3.37969e-17
-3.67453e-17
-3.25552e-17
-3.51027e-17
-3.44639e-17
-3.28317e-17
-3.07159e-17
-3.16425e-17
-3.65994e-17
-3.41397e-17
-3.31041e-17
-3.27893e-17
-3.25871e-17
-3.04078e-17
-3.29722e-17
-3.39955e-17
-3.05769e-17
-3.51866e-17
-3.43046e-17
-3.27406e-17
-3.37628e-17
-3.5267e-17
-2.92996e-17
-3.54482e-17
-3.57264e-17
-3.30536e-17
-3.44342e-17
-3.18736e-17
-3.51023e-17
-3.20094e-17
-3.32283e-17
-3.51678e-17
-3.41947e-17
-3.61163e-17
-3.27829e-17
-3.48982e-17
-3.64997e-17
-3.61594e-17
-3.49888e-17
-3.36454e-17
-3.23111e-17
-3.1558e-17
-3.55401e-17
-3.37551e-17
-3.2221e-17
-3.44419e-17
-3.18085e-17
-3.53468e-17
-3.47791e-17
-3.30039e-17
-3.47604e-17
-3.61155e-17
-2.95462e-17
-3.39047e-17
-3.28849e-17
-3.68823e-17
-3.46556e-17
-3.35657e-17
-3.13593e-17
-3.15561e-17
-3.49356e-17
-3.61849e-17
-3.07492e-17
-3.12756e-17
-3.18127e-17
-3.4022e-17
-3.36906e-17
-3.28879e-17
-3.29954e-17
-3.42511e-17
-3.45694e-17
-3.60348e-17
-3.74038e-17
-3.31054e-17
-3.14631e-17
-3.21035e-17
-3.32702e-17
-3.47569e-17
-3.15163e-17
-3.24808e-17
-3.27e-17
-3.45326e-17
-3.37292e-17
-3.49988e-17
-3.65247e-17
-3.42015e-17
-3.2935e-17
-3.62872e-17
-3.23623e-17
-3.29299e-17
-3.38653e-17
-3.49656e-17
-3.18448e-17
-3.51669e-17
-3.36806e-17
-3.53263e-17
-3.56877e-17
-3.31531e-17
-3.41061e-17
-3.81273e-17
-3.25087e-17
-3.45461e-17
-3.32126e-17
-3.54016e-17
-3.49121e-17
-3.58791e-17
-3.34219e-17
-3.41534e-17
-3.09078e-17
-3.44559e-17
-3.13678e-17
-3.65608e-17
-3.39323e-17
-3.699e-17
-3.35767e-17
-3.51543e-17
-3.27225e-17
-3.49082e-17
-3.22307e-17
-3.51469e-17
-3.27884e-17
-3.50405e-17
-3.369e-17
-3.53677e-17
-3.24535e-17
-3.45339e-17
-3.28222e-17
-3.5673e-17
-3.0681e-17
-3.52933e-17
-3.18432e-17
-3.57458e-17
-3.38594e-17
-3.83323e-17
-3.20863e-17
-3.60853e-17
-3.66078e-17
-7.52613e-17
-6.15156e-17
-6.56409e-17
-5.92457e-17
-6.58893e-17
-6.70003e-17
-6.31812e-17
-5.86324e-17
-5.87857e-17
-6.32002e-17
-6.22904e-17
-6.64053e-17
-6.79052e-17
-6.67817e-17
-6.10065e-17
-6.31401e-17
-6.2528e-17
-6.06087e-17
-5.67403e-17
-6.24055e-17
-6.07518e-17
-6.74956e-17
-5.94213e-17
-6.49021e-17
-6.28359e-17
-7.02383e-17
-6.84315e-17
-6.59615e-17
-5.78924e-17
-5.7852e-17
-6.23184e-17
-6.34211e-17
-6.35819e-17
-5.6764e-17
-6.63967e-17
-6.66872e-17
-6.76063e-17
-6.76886e-17
-6.211e-17
-6.0362e-17
-6.15869e-17
-6.29857e-17
-6.60135e-17
-6.15483e-17
-6.38838e-17
-6.72551e-17
-6.04862e-17
-5.97572e-17
-6.38757e-17
-6.43846e-17
-6.27162e-17
-6.27349e-17
-6.37314e-17
-6.08608e-17
-5.97614e-17
-6.27021e-17
-6.65682e-17
-6.52133e-17
-5.85614e-17
-6.39833e-17
-6.39465e-17
-6.66114e-17
-6.00456e-17
-6.72509e-17
-6.86031e-17
-6.47192e-17
-6.51308e-17
-6.19323e-17
-6.09655e-17
-6.84734e-17
-6.02297e-17
-6.35707e-17
-6.58397e-17
-5.6175e-17
-6.2222e-17
-6.39317e-17
-6.52471e-17
-5.9866e-17
-6.25194e-17
-6.05491e-17
-6.00964e-17
-5.75277e-17
-6.14245e-17
-7.21005e-17
-6.15463e-17
-6.18223e-17
-6.74354e-17
-6.645e-17
-5.8653e-17
-6.4597e-17
-6.55954e-17
-5.80881e-17
-6.99367e-17
-6.46685e-17
-6.55985e-17
-5.86552e-17
-6.3781e-17
-6.68971e-17
-5.75587e-17
-6.18734e-17
-6.39094e-17
-5.97296e-17
-6.85339e-17
-6.29323e-17
-6.49547e-17
-6.44431e-17
-6.715e-17
-6.268e-17
-6.67746e-17
-5.98803e-17
-6.18311e-17
-6.256e-17
-6.40759e-17
-5.84086e-17
-6.02211e-17
-6.66662e-17
-6.57151e-17
-6.67447e-17
-6.82324e-17
-5.90816e-17
-6.28777e-17
-6.56273e-17
-6.26108e-17
-5.94346e-17
-6.75549e-17
-6.50475e-17
-6.32294e-17
-7.01503e-17
-6.71247e-17
-6.16128e-17
-6.2627e-17
-6.11418e-17
-6.72001e-17
-6.67817e-17
-6.36661e-17
-5.58245e-17
-6.27907e-17
-6.18292e-17
-6.52419e-17
-6.37444e-17
-6.3152e-17
-6.33243e-17
-7.03064e-17
-6.22557e-17
-6.76321e-17
-6.55514e-17
-6.31433e-17
-5.96338e-17
-5.88487e-17
-6.88613e-17
-6.37103e-17
-6.27194e-17
-6.74082e-17
-5.89422e-17
-5.56497e-17
-6.2981e-17
-6.67247e-17
-6.0057e-17
-5.80976e-17
-6.54488e-17
-6.49381e-17
-7.03306e-17
-5.96223e-17
-6.0451e-17
-6.85973e-17
-6.1098e-17
-6.60101e-17
-6.39161e-17
-6.84999e-17
-6.02479e-17
-6.51812e-17
-6.40483e-17
-6.66767e-17
-6.42379e-17
-6.31525e-17
-5.78768e-17
-6.55407e-17
-7.01999e-17
-6.4649e-17
-6.01815e-17
-6.25831e-17
-6.32632e-17
-6.2804e-17
-5.87115e-17
-5.79209e-17
-6.56325e-17
-6.28802e-17
-6.63506e-17
-6.34361e-17
-6.79918e-17
-6.55865e-17
-5.97099e-17
-6.07897e-17
-6.82999e-17
-6.70084e-17
-6.3508e-17
-6.55915e-17
-6.23189e-17
-6.31167e-17
-6.08377e-17
-6.3955e-17
-5.69813e-17
-6.50459e-17
-6.64895e-17
-6.07272e-17
-6.1753e-17
-6.76129e-17
-5.80901e-17
-6.37599e-17
-5.99428e-17
-6.45661e-17
-5.90348e-17
-6.26232e-17
-5.71535e-17
-6.90065e-17
-6.08956e-17
-6.75445e-17
-6.01353e-17
-6.42379e-17
-5.78436e-17
-6.38111e-17
-5.9551e-17
-6.17292e-17
-6.15508e-17
-6.40832e-17
-5.91545e-17
-6.92176e-17
-5.9819e-17
-6.44284e-17
-5.75054e-17
-6.52642e-17
-5.96693e-17
-6.2962e-17
-6.43115e-17
-6.50827e-17
-5.95807e-17
-6.75291e-17
-5.96776e-17
-6.75524e-17
-5.889e-17
-6.44839e-17
-5.89942e-17
-7.04218e-17
-5.97898e-17
-6.41683e-17
-5.94909e-17
-6.28152e-17
-6.22758e-17
-6.32414e-17
-5.26788e-17
-6.21378e-17
-6.25465e-17
-6.18023e-17
-5.42347e-17
-6.66109e-17
-6.19137e-17
-1.13081e-16
-1.16097e-16
-1.16008e-16
-1.16767e-16
-1.30808e-16
-1.18685e-16
-1.22433e-16
-1.09907e-16
-1.07292e-16
-1.24241e-16
-1.2031e-16
-1.16268e-16
-1.2225e-16
-1.18049e-16
-1.19382e-16
-1.14821e-16
-1.22929e-16
-1.2254e-16
-1.15843e-16
-1.2184e-16
-1.13683e-16
-1.23895e-16
-1.19743e-16
-1.19752e-16
-1.15483e-16
-1.23082e-16
-1.21294e-16
-1.24923e-16
-1.09293e-16
-1.18784e-16
-1.2078e-16
-1.20809e-16
-1.20257e-16
-1.11569e-16
-1.10156e-16
-1.16094e-16
-1.16698e-16
-1.24253e-16
-1.1632e-16
-1.18751e-16
-1.08356e-16
-1.20035e-16
-1.2575e-16
-1.29434e-16
-1.33939e-16
-1.3101e-16
-1.16085e-16
-1.06583e-16
-1.15637e-16
-1.22862e-16
-1.21849e-16
-1.22797e-16
-1.20096e-16
-1.09521e-16
-1.10369e-16
-1.21894e-16
-1.14548e-16
-1.18633e-16
-1.14096e-16
-1.17671e-16
-1.21376e-16
-1.12535e-16
-1.13939e-16
-1.19814e-16
-1.09738e-16
-1.10739e-16
-1.16466e-16
-1.12573e-16
-1.11289e-16
-1.15607e-16
-1.19576e-16
-1.24089e-16
-1.20552e-16
-1.11427e-16
-1.17969e-16
-1.17348e-16
-1.21383e-16
-1.20171e-16
-1.2039e-16
-1.16731e-16
-1.18875e-16
-1.23811e-16
-1.14977e-16
-1.15823e-16
-1.21133e-16
-1.14169e-16
-1.30532e-16
-1.10807e-16
-9.91236e-17
-1.16447e-16
-1.19775e-16
-1.15117e-16
-1.19353e-16
-1.0869e-16
-1.28335e-16
-1.15608e-16
-1.08979e-16
-1.23664e-16
-1.1658e-16
-1.15438e-16
-1.22815e-16
-1.05359e-16
-1.16187e-16
-1.08094e-16
-1.23877e-16
-1.31882e-16
-1.20873e-16
-1.09619e-16
-1.20243e-16
-1.15096e-16
-1.22252e-16
-1.12135e-16
-1.16707e-16
-1.15961e-16
-1.12805e-16
-1.12412e-16
-1.14606e-16
-1.22288e-16
-1.20575e-16
-1.19446e-16
-1.34314e-16
-1.25301e-16
-1.11288e-16
-1.14073e-16
-1.29302e-16
-1.20001e-16
-1.20965e-16
-1.173e-16
-1.32493e-16
-1.05954e-16
-1.09819e-16
-1.18364e-16
-1.18119e-16
-1.22394e-16
-1.2287e-16
-1.2257e-16
-1.12182e-16
-1.14603e-16
-1.3221e-16
-1.06599e-16
-1.32998e-16
-1.2396e-16
-1.27342e-16
-1.12785e-16
-1.21531e-16
-1.2784e-16
-1.12003e-16
-1.22246e-16
-1.20192e-16
-1.24073e-16
-1.25579e-16
-1.07286e-16
-1.05903e-16
-1.19199e-16
-1.12716e-16
-1.20438e-16
-1.26752e-16
-1.12394e-16
-1.2569e-16
-1.24577e-16
-1.10659e-16
-1.16018e-16
-1.17424e-16
-1.17252e-16
-1.18862e-16
-1.07341e-16
-1.25032e-16
-1.19684e-16
-1.07028e-16
-1.2121e-16
-1.15757e-16
-1.21904e-16
-1.13061e-16
-1.10306e-16
-1.18561e-16
-1.28092e-16
-1.08168e-16
-1.17163e-16
-1.21892e-16
-1.14308e-16
-1.23183e-16
-1.28255e-16
-1.24688e-16
-1.17178e-16
-1.24759e-16
-1.17707e-16
-1.13319e-16
-1.08429e-16
-1.16619e-16
-1.26613e-16
-1.2434e-16
-1.17758e-16
-1.18756e-16
-1.16313e-16
-1.23509e-16
-1.16082e-16
-1.137e-16
-1.14711e-16
-1.16033e-16
-1.11221e-16
-1.17604e-16
-1.04283e-16
-1.24543e-16
-1.28265e-16
-1.09292e-16
-1.20663e-16
-1.1141e-16
-1.00762e-16
-1.15743e-16
-1.17715e-16
-1.24263e-16
-1.14132e-16
-1.2722e-16
-1.17283e-16
-1.30841e-16
-1.06198e-16
-1.19402e-16
-1.16435e-16
-1.22328e-16
-1.13843e-16
-1.24486e-16
-1.08088e-16
-1.23262e-16
-1.13794e-16
-1.28354e-16
-1.09146e-16
-1.17897e-16
-1.21283e-16
-1.27109e-16
-1.1479e-16
-1.28885e-16
-1.16928e-16
-1.2081e-16
-1.15426e-16
-1.27407e-16
-1.0878e-16
-1.30614e-16
-1.20468e-16
-1.17221e-16
-1.13899e-16
-1.24073e-16
-1.2137e-16
-1.20601e-16
-1.18224e-16
-1.17583e-16
-1.00619e-16
-1.09534e-16
-1.18053e-16
-1.17885e-16
-1.11834e-16
-1.26497e-16
-1.20012e-16
-1.27243e-16
-1.1268e-16
-1.26455e-16
-1.1629e-16
-2.46038e-16
-2.12379e-16
-2.20608e-16
-2.16519e-16
-2.1298e-16
-2.26696e-16
-2.22017e-16
-2.31232e-16
-2.15719e-16
-2.15336e-16
-2.44877e-16
-2.26096e-16
-2.11894e-16
-2.23274e-16
-2.2439e-16
-2.35667e-16
-2.41157e-16
-2.19542e-16
-2.09121e-16
-2.17179e-16
-2.24288e-16
-2.30227e-16
-1.8699e-16
-2.27441e-16
-2.03857e-16
-2.03664e-16
-2.21815e-16
-2.23935e-16
-2.10403e-16
-2.15887e-16
-2.09796e-16
-2.47882e-16
-2.34761e-16
-2.23365e-16
-2.0555e-16
-2.24101e-16
-2.21225e-16
-2.26912e-16
-2.13383e-16
-2.23798e-16
-2.26217e-16
-2.29646e-16
-2.23101e-16
-2.22082e-16
-2.00499e-16
-2.1555e-16
-2.24653e-16
-2.33502e-16
-2.18613e-16
-2.22585e-16
-2.01591e-16
-2.37926e-16
-2.12778e-16
-2.25116e-16
-2.26761e-16
-2.34476e-16
-2.26358e-16
-2.34303e-16
-2.24992e-16
-2.12557e-16
-2.21944e-16
-2.13241e-16
-2.04091e-16
-2.24026e-16
-2.12327e-16
-2.14668e-16
-2.21349e-16
-2.25936e-16
-2.10395e-16
-2.27965e-16
-2.36966e-16
-2.36331e-16
-2.10766e-16
-2.21108e-16
-2.2078e-16
-2.25655e-16
-2.32183e-16
-2.26273e-16
-2.25335e-16
-2.1588e-16
-2.26441e-16
-2.29535e-16
-2.12598e-16
-2.3156e-16
-2.0881e-16
-2.11968e-16
-2.3907e-16
-2.29925e-16
-2.26021e-16
-2.2523e-16
-2.13193e-16
-2.28754e-16
-2.27839e-16
-2.12272e-16
-2.28055e-16
-2.31064e-16
-2.31576e-16
-2.49644e-16
-2.4202e-16
-2.06193e-16
-2.09313e-16
-2.09029e-16
-2.13804e-16
-2.18879e-16
-1.99938e-16
-2.26676e-16
-2.27225e-16
-2.13611e-16
-2.31338e-16
-2.25896e-16
-2.07087e-16
-2.0139e-16
-2.18621e-16
-2.19669e-16
-2.23436e-16
-2.19162e-16
-2.16903e-16
-2.10907e-16
-2.18441e-16
-2.31128e-16
-2.25141e-16
-1.90896e-16
-1.99622e-16
-2.24811e-16
-2.09537e-16
-2.18551e-16
-2.39518e-16
-2.12269e-16
-2.26804e-16
-2.17626e-16
-2.2482e-16
-2.16379e-16
-2.3778e-16
-2.33818e-16
-2.28746e-16
-2.22629e-16
-2.21103e-16
-2.24273e-16
-2.28468e-16
-2.12331e-16
-2.29703e-16
-2.14308e-16
-2.1577e-16
-2.0668e-16
-2.11568e-16
-2.11382e-16
-2.21929e-16
-2.12103e-16
-2.4483e-16
-2.30692e-16
-1.85879e-16
-2.10786e-16
-2.15459e-16
-2.31901e-16
-2.36618e-16
-2.29792e-16
-2.14373e-16
-2.12808e-16
-2.04592e-16
-2.12855e-16
-2.16229e-16
-2.2717e-16
-2.4379e-16
-2.20309e-16
-2.21782e-16
-2.25459e-16
-2.14805e-16
-2.18067e-16
-2.47954e-16
-2.20261e-16
-2.16712e-16
-2.32504e-16
-1.97038e-16
-2.097e-16
-2.42678e-16
-2.4078e-16
-2.12334e-16
-2.27576e-16
-2.17266e-16
-2.16248e-16
-2.39649e-16
-2.29429e-16
-2.0592e-16
-2.17159e-16
-2.35305e-16
-2.10871e-16
-2.24652e-16
-1.98688e-16
-2.30959e-16
-2.2619e-16
-2.01327e-16
-2.52598e-16
-2.33005e-16
-1.88971e-16
-2.0891e-16
-2.09391e-16
-2.05057e-16
-2.27639e-16
-2.19633e-16
-2.0944e-16
-2.17537e-16
-2.23887e-16
-2.10405e-16
-2.3039e-16
-2.25746e-16
-2.37568e-16
-2.15564e-16
-2.153e-16
-2.39324e-16
-2.19171e-16
-2.31143e-16
-2.05474e-16
-2.31061e-16
-2.30215e-16
-2.11029e-16
-2.14487e-16
-2.53123e-16
-2.19384e-16
-2.28168e-16
-2.21736e-16
-2.31745e-16
-2.23758e-16
-2.44386e-16
-2.08224e-16
-2.30039e-16
-2.03495e-16
-2.11114e-16
-2.06337e-16
-2.39763e-16
-2.09767e-16
-2.33787e-16
-2.11645e-16
-2.37781e-16
-2.25632e-16
-2.3322e-16
-2.01964e-16
-2.05059e-16
-2.16996e-16
-2.32243e-16
-2.07144e-16
-2.4155e-16
-2.24138e-16
-2.07067e-16
-1.96506e-16
-2.33825e-16
-2.09775e-16
-2.46192e-16
-2.1196e-16
-2.17739e-16
-2.25568e-16
-2.38796e-16
-2.00289e-16
-2.36919e-16
-2.29208e-16
-2.34264e-16
-2.07234e-16
-4.18206e-16
-3.96268e-16
-4.22309e-16
-4.2469e-16
-4.11673e-16
-4.33215e-16
-3.80513e-16
-4.18752e-16