# vtk DataFile Version 1.0
Ion Density - Current Sheet
ASCII
DATASET STRUCTURED_POINTS
DIMENSIONS 256 128 1
ORIGIN 0 0 0
SPACING 0.15625 0.15625 1
POINT_DATA 32768
SCALARS rhoi float
LOOKUP_TABLE default
1.98372e-18
1.90351e-18
1.9167e-18
1.89764e-18
2.09507e-18
1.99529e-18
1.88871e-18
1.85161e-18
1.87599e-18
1.84903e-18
2.0001e-18
1.98467e-18
1.88471e-18
1.90035e-18
1.91105e-18
2.04865e-18
1.91624e-18
1.95951e-18
1.95587e-18
1.95167e-18
2.03393e-18
1.99216e-18
2.01104e-18
1.93275e-18
2.04296e-18
1.90225e-18
1.88518e-18
1.94864e-18
1.93856e-18
1.98097e-18
1.91887e-18
2.04578e-18
1.92391e-18
2.02351e-18
1.94249e-18
1.84054e-18
1.96524e-18
1.95042e-18
1.99155e-18
1.91866e-18
1.90763e-18
1.87717e-18
2.01548e-18
1.82224e-18
1.90049e-18
1.88388e-18
1.90978e-18
1.92511e-18
1.90808e-18
1.98856e-18
1.94061e-18
1.9584e-18
1.84295e-18
1.81373e-18
2.01122e-18
1.90684e-18
2.01441e-18
2.00006e-18
1.89987e-18
1.94368e-18
1.94644e-18
1.98396e-18
2.03636e-18
1.94504e-18
1.84615e-18
1.9342e-18
1.91642e-18
1.82446e-18
1.87741e-18
1.86912e-18
1.93837e-18
1.96204e-18
1.9365e-18
1.8665e-18
1.97458e-18
1.91742e-18
1.86056e-18
2.01046e-18
1.84325e-18
1.95482e-18
1.86587e-18
1.81754e-18
1.8891e-18
1.92538e-18
1.927e-18
1.95321e-18
1.85479e-18
1.98804e-18
2.0038e-18
1.91825e-18
1.80494e-18
1.85306e-18
1.86829e-18
1.99843e-18
2.07123e-18
2.08322e-18
1.98512e-18
1.91057e-18
1.8848e-18
1.94965e-18
1.78723e-18
1.92738e-18
1.76524e-18
1.93299e-18
1.92288e-18
1.83201e-18
1.89017e-18
1.89222e-18
1.86084e-18
1.8499e-18
1.83759e-18
1.93634e-18
1.97918e-18
1.96124e-18
1.98529e-18
1.89095e-18
1.86862e-18
1.85351e-18
1.83294e-18
1.92417e-18
1.90389e-18
1.97423e-18
1.82324e-18
1.92979e-18
1.92635e-18
1.95179e-18
1.93791e-18
1.91377e-18
1.94735e-18
1.82821e-18
1.93342e-18
1.89313e-18
1.93214e-18
1.95147e-18
1.87361e-18
1.94465e-18
1.93018e-18
1.91944e-18
1.97722e-18
2.00463e-18
2.03399e-18
1.82012e-18
1.88076e-18
1.92844e-18
1.96452e-18
1.9074e-18
1.93629e-18
1.90537e-18
1.88033e-18
1.97839e-18
1.94773e-18
1.85651e-18
1.85659e-18
1.85883e-18
1.97658e-18
2.00118e-18
1.94154e-18
1.92545e-18
1.88783e-18
1.98468e-18
1.98314e-18
1.94575e-18
1.80426e-18
1.84877e-18
1.9392e-18
2.02088e-18
1.86112e-18
2.00229e-18
1.94621e-18
1.98498e-18
1.86441e-18
1.87433e-18
1.96614e-18
2.00135e-18
2.00753e-18
1.89387e-18
1.84666e-18
1.89062e-18
1.86804e-18
1.97876e-18
1.87251e-18
1.92642e-18
2.05247e-18
1.89056e-18
1.81665e-18
1.93113e-18
1.97791e-18
1.91732e-18
1.94128e-18
1.95612e-18
1.93932e-18
1.94428e-18
1.92578e-18
1.91657e-18
1.94558e-18
1.92068e-18
1.85059e-18
1.87844e-18
1.97771e-18
1.9601e-18
1.98368e-18
1.89759e-18
1.9205e-18
1.91118e-18
1.9616e-18
1.85828e-18
1.97377e-18
1.77872e-18
2.00634e-18
1.76762e-18
2.04405e-18
1.8243e-18
2.04958e-18
1.80708e-18
1.93502e-18
1.82292e-18
2.06579e-18
1.96651e-18
2.05029e-18
1.86142e-18
2.0144e-18
1.83368e-18
1.89787e-18
1.75789e-18
1.9956e-18
1.91654e-18
1.96253e-18
1.76356e-18
1.97214e-18
1.8123e-18
1.98873e-18
1.82995e-18
2.0582e-18
1.85765e-18
1.96946e-18
1.87211e-18
1.9898e-18
1.86019e-18
1.96812e-18
1.84912e-18
1.9404e-18
1.83189e-18
1.97273e-18
1.95617e-18
2.09332e-18
1.87796e-18
2.06158e-18
1.91013e-18
2.08313e-18
1.88738e-18
1.99327e-18
1.82078e-18
2.03581e-18
1.81603e-18
1.93932e-18
1.84911e-18
2.59783e-18
2.79419e-18
2.71846e-18
2.63798e-18
2.63787e-18
2.87465e-18
2.83631e-18
2.78936e-18
2.94314e-18
2.85255e-18
2.91516e-18
2.86238e-18
2.88059e-18
2.67732e-18
2.6497e-18
2.75292e-18
2.78898e-18
2.87459e-18
2.86633e-18
2.745e-18
2.76136e-18
2.78383e-18
2.53788e-18
2.8905e-18
2.64862e-18
2.9734e-18
2.7451e-18
2.79851e-18
2.75925e-18
2.79254e-18
2.87199e-18
2.61511e-18
2.81728e-18
2.7861e-18
2.91775e-18
2.68718e-18
2.69641e-18
2.80113e-18
2.93624e-18
2.73646e-18
2.77419e-18
2.90514e-18
2.8264e-18
2.95926e-18
2.8272e-18
2.77227e-18
2.82868e-18
2.80665e-18
2.68456e-18
2.72049e-18
2.81739e-18
2.82434e-18
2.70904e-18
2.78287e-18
2.68838e-18
2.77515e-18
2.69732e-18
2.85798e-18
2.8534e-18
2.75705e-18
2.69499e-18
2.83833e-18
2.79674e-18
2.75029e-18
2.89296e-18
2.73343e-18
2.86453e-18
2.63042e-18
2.71239e-18
2.80626e-18
2.83955e-18
2.82663e-18
2.62443e-18
2.89363e-18
2.74129e-18
2.82565e-18
2.75087e-18
2.67614e-18
2.55347e-18
2.82567e-18
3.00558e-18
2.84245e-18
2.8831e-18
2.81494e-18
2.71506e-18
2.82542e-18
2.9404e-18
2.71593e-18
2.75684e-18
2.64175e-18
2.72025e-18
2.81347e-18
2.66136e-18
2.70509e-18
2.57834e-18
2.77611e-18
2.76488e-18
2.75066e-18
2.82843e-18
2.87626e-18
2.85984e-18
2.79546e-18
2.78209e-18
2.7637e-18
2.8382e-18
2.76233e-18
2.78184e-18
2.81738e-18
2.82797e-18
2.81552e-18
2.88892e-18
2.71181e-18
2.86981e-18
2.74187e-18
2.6771e-18
2.79704e-18
2.71217e-18
2.86226e-18
2.86467e-18
2.77759e-18
2.74442e-18
2.68691e-18
2.81576e-18
2.78063e-18
2.75684e-18
2.92284e-18
2.9896e-18
2.73542e-18
2.74021e-18
2.76508e-18
2.83562e-18
2.79406e-18
2.69882e-18
2.81267e-18
2.70464e-18
2.82695e-18
2.92163e-18
2.80434e-18
2.67538e-18
2.75113e-18
2.74865e-18
2.73773e-18
2.79164e-18
2.81802e-18
2.83502e-18
2.74558e-18
2.6811e-18
2.78485e-18
2.75675e-18
2.75748e-18
2.65365e-18
2.77962e-18
2.90679e-18
2.91004e-18
2.89757e-18
2.77197e-18
2.83146e-18
2.77405e-18
2.74326e-18
2.67682e-18
2.77988e-18
2.83854e-18
2.79532e-18
2.75319e-18
2.81517e-18
2.80562e-18
2.72783e-18
2.85086e-18
2.67561e-18
2.73591e-18
2.74655e-18
2.69691e-18
2.82951e-18
2.75362e-18
2.7672e-18
2.86065e-18
2.80514e-18
2.78735e-18
2.74458e-18
2.82374e-18
2.79734e-18
2.82742e-18
2.84778e-18
2.80347e-18
2.70419e-18
2.70008e-18
2.86031e-18
2.7391e-18
2.7781e-18
2.82895e-18
2.88859e-18
2.77245e-18
2.79529e-18
2.72774e-18
2.77468e-18
2.87072e-18
2.81297e-18
2.86459e-18
2.83961e-18
2.84394e-18
2.78059e-18
2.87385e-18
2.75317e-18
2.7947e-18
2.86172e-18
2.75755e-18
2.88018e-18
2.70613e-18
2.86684e-18
2.71178e-18
2.8509e-18
2.71589e-18
2.86008e-18
2.61499e-18
2.8785e-18
2.71021e-18
2.95134e-18
2.65168e-18
2.80033e-18
2.73927e-18
2.83862e-18
2.59045e-18
2.81547e-18
2.6528e-18
2.8404e-18
2.53703e-18
2.86258e-18
2.6922e-18
2.89631e-18
2.64468e-18
2.83237e-18
2.66876e-18
2.87942e-18
2.64355e-18
2.87254e-18
2.59221e-18
2.80437e-18
2.7278e-18
3.01232e-18
2.72352e-18
2.89469e-18
2.7289e-18
2.91276e-18
2.56445e-18
2.77856e-18
2.59795e-18
2.82997e-18
2.6338e-18
2.8875e-18
2.6836e-18
2.97907e-18
2.73033e-18
2.82395e-18
2.65255e-18
2.85151e-18
2.54885e-18
5.66799e-18
4.90768e-18
5.27137e-18
5.15325e-18
5.25563e-18
5.20802e-18
4.96998e-18
5.23045e-18
5.07453e-18
5.0098e-18
4.90618e-18
5.35205e-18
5.39856e-18
4.99108e-18
5.05354e-18
5.18494e-18
5.15373e-18
4.97403e-18
5.24379e-18
5.06809e-18
5.08851e-18
5.3345e-18
5.14039e-18
5.29018e-18
5.20223e-18
5.1413e-18
5.07945e-18
5.09099e-18
5.33828e-18
5.02866e-18
5.10601e-18
4.96687e-18
5.27501e-18
5.04265e-18
5.08854e-18
5.31585e-18
5.24245e-18
5.13402e-18
5.29107e-18
5.0058e-18
5.16191e-18
5.09338e-18
5.35575e-18
5.01887e-18
5.0551e-18
5.26987e-18
5.36936e-18
5.18652e-18
5.19598e-18
5.17295e-18
5.03466e-18
5.03865e-18
5.19468e-18
5.1308e-18
5.0863e-18
5.15683e-18
4.89563e-18
5.42213e-18
5.29337e-18
4.95004e-18
5.23641e-18
5.26799e-18
5.32412e-18
5.05864e-18
4.89442e-18
5.4428e-18
5.12054e-18
5.40014e-18
5.46453e-18
5.0557e-18
5.4123e-18
5.29589e-18
5.23647e-18
5.37204e-18
5.40919e-18
5.24099e-18
5.03709e-18
5.1368e-18
5.3957e-18
5.26385e-18
4.99538e-18
5.21098e-18
5.27233e-18
5.2251e-18
5.08981e-18
5.4471e-18
5.36366e-18
5.09891e-18
5.35526e-18
5.02125e-18
5.37868e-18
5.5697e-18
5.08097e-18
5.1472e-18
5.18374e-18
5.45054e-18
5.42955e-18
5.02452e-18
5.27597e-18
5.02401e-18
5.07137e-18
5.14729e-18
5.21934e-18
5.37675e-18
5.26735e-18
5.2683e-18
5.28057e-18
5.2381e-18
5.19176e-18
5.26549e-18
5.24583e-18
5.25725e-18
5.0929e-18
5.24637e-18
5.34289e-18
5.19291e-18
5.32109e-18
5.29257e-18
5.08762e-18
5.19532e-18
5.28832e-18
5.06082e-18
5.11991e-18
5.12653e-18
5.11823e-18
5.0272e-18
5.24116e-18
5.20265e-18
5.00172e-18
5.00136e-18
5.09024e-18
5.42555e-18
5.26567e-18
5.11203e-18
5.48322e-18
4.90431e-18
5.1362e-18
5.28807e-18
5.27939e-18
5.16842e-18
5.20847e-18
5.07394e-18
5.32973e-18
5.08123e-18
4.88713e-18
5.09896e-18
5.35323e-18
5.36135e-18
5.02171e-18
5.16034e-18
5.29086e-18
5.33719e-18
4.94207e-18
5.07502e-18
4.97764e-18
5.25159e-18
5.47893e-18
5.26254e-18
5.37163e-18
5.35331e-18
5.34726e-18
5.16746e-18
5.15958e-18
5.41602e-18
5.03817e-18
4.9598e-18
5.16998e-18
5.21227e-18
5.32492e-18
5.25949e-18
5.25623e-18
5.36474e-18
5.18109e-18
5.11432e-18
5.16142e-18
5.29283e-18
5.30122e-18
5.28525e-18
5.34068e-18
5.07229e-18
4.99824e-18
5.16956e-18
5.36443e-18
5.29035e-18
5.38205e-18
5.24846e-18
5.14465e-18
5.31916e-18
5.0976e-18
5.12958e-18
5.13319e-18
5.05901e-18
5.22911e-18
5.21256e-18
5.15789e-18
5.27269e-18
5.1509e-18
5.06525e-18
4.95201e-18
5.18124e-18
5.03611e-18
5.14129e-18
5.24028e-18
5.44197e-18
5.58511e-18
5.05809e-18
5.51548e-18
4.96924e-18
5.54141e-18
4.91398e-18
5.37262e-18
4.97572e-18
5.26125e-18
5.00308e-18
5.51126e-18
5.07863e-18
5.20855e-18
4.96437e-18
5.63432e-18
4.86205e-18
5.33414e-18
5.03368e-18
5.5834e-18
5.0663e-18
5.39311e-18
4.87494e-18
5.49673e-18
4.98694e-18
5.29313e-18
5.00304e-18
5.59239e-18
5.04976e-18
5.51592e-18
4.98119e-18
5.49314e-18
5.02972e-18
5.38486e-18
5.01313e-18
5.28957e-18
4.89418e-18
5.36998e-18
4.89476e-18
5.22433e-18
5.09329e-18
5.56729e-18
5.08764e-18
5.28769e-18
4.96153e-18
5.47041e-18
5.1633e-18
5.39883e-18
4.9525e-18
5.44832e-18
5.12395e-18
5.43286e-18
5.22713e-18
9.44372e-18
9.65709e-18
9.8411e-18
9.60529e-18
9.42414e-18
9.5407e-18
9.55689e-18
9.79692e-18
9.66643e-18
9.73491e-18
9.42809e-18
9.92396e-18
9.964e-18
9.3133e-18
9.68827e-18
9.85272e-18
9.73952e-18
9.79842e-18
9.66672e-18
9.69513e-18
1.00193e-17
9.37379e-18
9.51857e-18
9.74945e-18
9.51559e-18
9.87958e-18
9.3023e-18
9.80082e-18
9.8954e-18
9.73833e-18
1.0217e-17
9.47368e-18
9.81503e-18
9.83787e-18
9.71569e-18
9.87043e-18
1.03433e-17
9.70293e-18
9.74834e-18
9.68548e-18
9.77216e-18
9.45636e-18
9.50145e-18
9.37804e-18
9.93871e-18
9.79611e-18
9.70973e-18
9.61853e-18
9.6615e-18
9.81481e-18
9.62546e-18
9.58919e-18
9.80069e-18
9.72738e-18
9.56798e-18
1.00948e-17
9.92248e-18
9.69402e-18
9.95543e-18
9.31159e-18
9.89177e-18
9.97635e-18
9.47128e-18
9.94431e-18
9.43383e-18
9.62076e-18
1.02789e-17
9.9527e-18
9.41545e-18
9.37596e-18
9.67492e-18
1.01795e-17
9.61593e-18
9.58722e-18
9.30991e-18
9.58117e-18
9.98521e-18
9.65537e-18
1.03476e-17
9.80874e-18
9.24357e-18
9.66572e-18
9.92461e-18
9.40665e-18
9.39138e-18
9.97013e-18
9.6681e-18
9.84394e-18
9.88029e-18
9.36613e-18
9.70366e-18
9.48739e-18
9.77523e-18
9.79006e-18
9.50482e-18
9.18365e-18
9.79255e-18
9.46258e-18
9.92082e-18
9.37326e-18
9.76866e-18
9.51847e-18
9.44144e-18
9.76021e-18
9.58077e-18
9.4879e-18
9.57022e-18
9.65303e-18
9.97854e-18
9.53301e-18
9.73542e-18
9.64489e-18
9.91829e-18
9.84893e-18
9.59932e-18
1.02753e-17
9.94603e-18
9.41953e-18
9.81646e-18
9.77263e-18
9.68218e-18
9.81312e-18
1.0081e-17
9.8195e-18
9.38547e-18
9.38371e-18
9.70029e-18
9.91005e-18
9.90212e-18
9.81977e-18
9.74456e-18
9.5804e-18
9.30353e-18
9.64377e-18
9.8911e-18
9.82712e-18
9.81669e-18
9.27371e-18
9.93184e-18
9.62871e-18
9.46846e-18
9.54577e-18
9.29834e-18
9.75959e-18
9.75073e-18
9.68271e-18
9.91089e-18
9.49003e-18
9.61446e-18
9.64927e-18
9.6032e-18
9.43154e-18
9.75275e-18
9.60033e-18
9.77946e-18
9.65168e-18
9.18313e-18
9.3326e-18
9.59277e-18
9.62638e-18
9.75378e-18
9.50491e-18
9.39693e-18
9.49858e-18
9.77634e-18
9.84569e-18
9.961e-18
9.68752e-18
9.56606e-18
9.65086e-18
9.67566e-18
9.74007e-18
9.66487e-18
9.52984e-18
9.77863e-18
9.65264e-18
9.674e-18
9.82431e-18
9.87016e-18
1.02808e-17
9.92166e-18
9.31321e-18
9.16249e-18
9.87654e-18
9.65849e-18
9.48447e-18
9.72615e-18
9.74532e-18
9.76341e-18
9.52662e-18
9.69175e-18
9.80766e-18
9.63744e-18
9.52897e-18
9.68438e-18
9.68476e-18
9.58969e-18
9.98721e-18
9.70252e-18
9.36391e-18
1.00121e-17
1.0077e-17
9.44511e-18
9.44728e-18
9.69409e-18
9.14819e-18
1.02396e-17
9.44916e-18
9.88662e-18
9.52626e-18
1.00847e-17
9.20282e-18
1.01003e-17
9.37387e-18
1.0209e-17
9.22634e-18
1.02923e-17
8.8178e-18
9.59827e-18
9.26248e-18
1.02692e-17
9.23714e-18
9.8867e-18
9.38781e-18
1.01651e-17
9.31391e-18
9.82495e-18
9.26648e-18
1.01943e-17
9.09151e-18
9.70533e-18
9.4569e-18
9.87631e-18
9.27832e-18
9.82274e-18
8.83534e-18
1.03613e-17
9.03548e-18
1.0264e-17
9.43821e-18
1.03465e-17
9.18828e-18
9.96712e-18
9.4862e-18
1.00803e-17
9.36062e-18
1.03356e-17
9.40295e-18
1.00128e-17
8.96683e-18
1.01727e-17
9.32673e-18
1.0154e-17
9.3069e-18
1.01446e-17
9.40727e-18
1.8021e-17
1.87956e-17
1.72786e-17
1.80076e-17
1.83007e-17
1.82784e-17
1.85359e-17
1.90618e-17
1.79364e-17
1.80665e-17
1.73978e-17
1.86863e-17
1.8817e-17
1.77675e-17
1.8076e-17
1.85514e-17
1.78137e-17
1.89882e-17
1.84059e-17
1.80863e-17
1.84226e-17
1.81037e-17
1.81077e-17
1.81741e-17
1.80785e-17
1.88187e-17
1.87569e-17
1.74108e-17
1.87744e-17
1.88153e-17
1.74524e-17
1.77808e-17
1.83792e-17
1.77225e-17
1.78898e-17
1.79527e-17
1.81887e-17
1.83951e-17
1.81618e-17
1.72895e-17
1.81959e-17
1.83875e-17
1.82394e-17
1.85024e-17
1.70675e-17
1.88769e-17
1.83817e-17
1.85128e-17
1.77314e-17
1.92065e-17
1.81439e-17
1.81234e-17
1.8019e-17
1.71428e-17
1.90383e-17
1.78814e-17
1.80356e-17
1.85688e-17
1.87327e-17
1.80539e-17
1.83347e-17
1.7862e-17
1.85045e-17
1.85755e-17
1.82815e-17
1.85856e-17
1.69602e-17
1.71933e-17
1.8298e-17
1.83455e-17
1.79878e-17
1.79659e-17
1.80476e-17
1.83903e-17
1.7633e-17
1.79063e-17
1.7418e-17
1.85877e-17
1.82e-17
1.80071e-17
1.75664e-17
1.74307e-17
1.83486e-17
1.87596e-17
1.81533e-17
1.77729e-17
1.78935e-17
1.84605e-17
1.89623e-17
1.82031e-17
1.79811e-17
1.81023e-17
1.74909e-17
1.83798e-17
1.82215e-17
1.88977e-17
1.88413e-17
1.83438e-17
1.83485e-17
1.84912e-17
1.76674e-17
1.79311e-17
1.85356e-17
1.84442e-17
1.84424e-17
1.79894e-17
1.80266e-17
1.77875e-17
1.77601e-17
1.77669e-17
1.79668e-17
1.84944e-17
1.80119e-17
1.82252e-17
1.76209e-17
1.77761e-17
1.89562e-17
1.90338e-17
1.83605e-17
1.79675e-17
1.84252e-17
1.9541e-17
1.8516e-17
1.80155e-17
1.81102e-17
1.79307e-17
1.74934e-17
1.78965e-17
1.77562e-17
1.76419e-17
1.86215e-17
1.85736e-17
1.76916e-17
1.78269e-17
1.77328e-17
1.79028e-17
1.82964e-17
1.82341e-17
1.78515e-17
1.78235e-17
1.90157e-17
1.86136e-17
1.87872e-17
1.82191e-17
1.82689e-17
1.89054e-17
1.84031e-17
1.81572e-17
1.80486e-17
1.88625e-17
1.78822e-17
1.79797e-17
1.78309e-17
1.86213e-17
1.71138e-17
1.7785e-17
1.83153e-17
1.86464e-17
1.87626e-17
1.78205e-17
1.77328e-17
1.87303e-17
1.8884e-17
1.8357e-17
1.86986e-17
1.80426e-17
1.81995e-17
1.80146e-17
1.84679e-17
1.84745e-17
1.84536e-17
1.85288e-17
1.83533e-17
1.86842e-17
1.82461e-17
1.7642e-17
1.79553e-17
1.744e-17
1.77915e-17
1.75947e-17
1.86457e-17
1.91051e-17
1.89194e-17
1.77042e-17
1.87381e-17
1.7848e-17
1.73975e-17
1.8335e-17
1.77285e-17
1.84473e-17
1.87912e-17
1.73944e-17
1.82855e-17
1.92179e-17
1.79099e-17
1.8044e-17
1.78473e-17
1.80417e-17
1.73041e-17
1.85227e-17
1.81313e-17
1.83911e-17
1.91139e-17
1.82822e-17
1.73827e-17
1.71376e-17
1.89516e-17
1.70866e-17
1.8815e-17
1.74165e-17
1.88386e-17
1.77287e-17
1.89057e-17
1.75731e-17
1.88158e-17
1.71925e-17
1.80659e-17
1.78247e-17
1.92977e-17
1.68599e-17
1.82581e-17
1.75277e-17
1.90257e-17
1.7241e-17
1.84652e-17
1.74634e-17
1.91673e-17
1.75923e-17
1.83511e-17
1.7015e-17
1.87085e-17
1.68362e-17
1.81091e-17
1.73253e-17
1.83711e-17
1.7348e-17
1.90676e-17
1.76386e-17
1.91798e-17
1.77731e-17
1.91684e-17
1.76807e-17
1.92459e-17
1.70928e-17
1.88635e-17
1.70205e-17
1.88483e-17
1.75083e-17
1.85903e-17
1.78406e-17
1.90418e-17
1.74644e-17
1.85368e-17
1.78943e-17
1.9521e-17
1.76971e-17
3.19148e-17
3.47938e-17
3.34555e-17
3.40556e-17
3.37897e-17
3.56389e-17
3.29517e-17
3.31454e-17
3.36035e-17
3.40813e-17
3.36194e-17
3.20067e-17
3.30752e-17
3.32555e-17
3.45384e-17
3.46899e-17
3.30216e-17
3.4249e-17
3.25391e-17
3.39604e-17
3.43175e-17
3.33561e-17
3.31859e-17
3.27642e-17
3.45906e-17
3.40989e-17
3.29439e-17
3.31543e-17
3.27191e-17
3.19076e-17
3.45638e-17
3.56979e-17
3.30775e-17
3.38487e-17
3.36494e-17
3.27914e-17
3.52797e-17
3.32199e-17
3.43382e-17
3.32967e-17
3.25144e-17
3.48939e-17
3.41994e-17
3.30088e-17
3.42762e-17
3.29907e-17
3.43817e-17
3.33927e-17
3.36195e-17
3.5426e-17
3.36207e-17
3.28723e-17
3.3234e-17
3.40503e-17
3.34849e-17
3.33708e-17
3.29221e-17
3.34336e-17
3.369e-17
3.25635e-17
3.40298e-17
3.28439e-17
3.29512e-17
3.28958e-17
3.54986e-17
3.38292e-17
3.21697e-17
3.60651e-17
3.3608e-17
3.2231e-17
3.17244e-17
3.35052e-17
3.53798e-17
3.36809e-17
3.37413e-17
3.32351e-17
3.36366e-17
3.30998e-17
3.41098e-17
3.48634e-17
3.32493e-17
3.32979e-17
3.42041e-17
3.46776e-17
3.48382e-17
3.29203e-17
3.45783e-17
3.35695e-17
3.37388e-17
3.28635e-17
3.48194e-17
3.43323e-17
3.40723e-17
3.26764e-17
3.27403e-17
3.22573e-17
3.32534e-17
3.47507e-17
3.32386e-17
3.38242e-17
3.65679e-17
3.30095e-17
3.32616e-17
3.42854e-17
3.36997e-17
3.39685e-17
3.40965e-17
3.39573e-17
3.43054e-17
3.39015e-17
3.37595e-17
3.42896e-17
3.55762e-17
3.4517e-17
3.41511e-17
3.23979e-17
3.21848e-17
3.27733e-17
3.4401e-17
3.38083e-17
3.16951e-17
3.48438e-17
3.42824e-17
3.36212e-17
3.45815e-17
3.45194e-17
3.50989e-17
3.52997e-17
3.47682e-17
3.33203e-17
3.40255e-17
3.38651e-17
3.39737e-17
3.41006e-17
3.52944e-17
3.36576e-17
3.45776e-17
3.50927e-17
3.38482e-17
3.33779e-17
3.21651e-17
3.31156e-17
3.30385e-17
3.48923e-17
3.29939e-17
3.33515e-17
3.32527e-17
3.3752e-17
3.28266e-17
3.36485e-17
3.42355e-17
3.40387e-17
3.32928e-17
3.34369e-17
3.38031e-17
3.29988e-17
3.47568e-17
3.35804e-17
3.3448e-17
3.45459e-17
3.44237e-17
3.45017e-17
3.47033e-17
3.3453e-17
3.33888e-17
3.37048e-17
3.35249e-17
3.4079e-17
3.34694e-17
3.44803e-17
3.39808e-17
3.37551e-17
3.47355e-17
3.33129e-17
3.29235e-17
3.40926e-17
3.4602e-17
3.2568e-17
3.3065e-17
3.37413e-17
3.31075e-17
3.37968e-17
3.35466e-17
3.35562e-17
3.40343e-17
3.41542e-17
3.48853e-17
3.40855e-17
3.31166e-17
3.53997e-17
3.34911e-17
3.287e-17
3.45373e-17
3.35064e-17
3.42134e-17
3.45729e-17
3.38825e-17
3.29895e-17
3.48574e-17
3.38511e-17
3.40919e-17
3.33268e-17
3.29544e-17
3.43162e-17
3.56782e-17
3.22488e-17
3.5292e-17
3.31653e-17
3.50091e-17
3.24945e-17
3.49133e-17
3.18169e-17
3.57771e-17
3.1263e-17
3.424e-17
3.27296e-17
3.61653e-17
3.27894e-17
3.45983e-17
3.29017e-17
3.54066e-17
3.23698e-17
3.48925e-17
3.29619e-17
3.56688e-17
3.30877e-17
3.59284e-17
3.29772e-17
3.56704e-17
3.31465e-17
3.56991e-17
3.30025e-17
3.61299e-17
3.2799e-17
3.6208e-17
3.47039e-17
3.39483e-17
3.2405e-17
3.46194e-17
3.22233e-17
3.44731e-17
3.25485e-17
3.46544e-17
3.30406e-17
3.46546e-17
3.20666e-17
3.49529e-17
3.28295e-17
3.57343e-17
3.26342e-17
3.3693e-17
3.16713e-17
3.48497e-17
3.18439e-17
3.45803e-17
3.20595e-17
6.5867e-17
6.27578e-17
6.35893e-17
6.16005e-17
6.54765e-17
6.30863e-17
6.13266e-17
6.32991e-17
6.19737e-17
6.35821e-17
6.26342e-17
6.42543e-17
6.29304e-17
5.94654e-17
6.36064e-17
6.15884e-17
6.31094e-17
6.4867e-17
6.08766e-17
6.34542e-17
6.17419e-17
6.34044e-17
6.30572e-17
6.52737e-17
6.38396e-17
6.55994e-17
6.51872e-17
6.43442e-17
6.22869e-17
6.30445e-17
6.59356e-17
6.30555e-17
6.15727e-17
5.9273e-17
6.28461e-17
6.53814e-17
6.54902e-17
6.4531e-17
5.96538e-17
6.46926e-17
6.48245e-17
6.51927e-17
6.71533e-17
6.12956e-17
6.01478e-17
6.63559e-17
6.18122e-17
6.22667e-17
6.4861e-17
6.32351e-17
6.2283e-17
6.3497e-17
6.69088e-17
6.55412e-17
6.4572e-17
6.35475e-17
6.58934e-17
6.56829e-17
6.17459e-17
6.38326e-17
6.22351e-17
6.26049e-17
6.44978e-17
6.42145e-17
6.41158e-17
6.2092e-17
6.37353e-17
6.30259e-17
6.3148e-17
6.53715e-17
6.73283e-17
6.57012e-17
6.25323e-17
6.45845e-17
6.23844e-17
6.38491e-17
6.5586e-17
6.12995e-17
6.35424e-17
6.00491e-17
6.31917e-17
6.54386e-17
6.01045e-17
6.61873e-17
6.33344e-17
6.26107e-17
6.19763e-17
6.39496e-17
6.28418e-17
6.31563e-17
6.2282e-17
6.16395e-17
6.36775e-17
6.40367e-17
6.32863e-17
6.21644e-17
6.41314e-17
6.35352e-17
6.17661e-17
6.12655e-17
6.34384e-17
6.28413e-17
6.26922e-17
6.53963e-17
6.21817e-17
6.48475e-17
6.40865e-17
6.31042e-17
6.2434e-17
6.36754e-17
6.37155e-17
6.2163e-17
6.22608e-17
6.39735e-17
6.51718e-17
6.58659e-17
6.22853e-17
6.39214e-17
6.51616e-17
6.58652e-17
6.25054e-17
6.05098e-17
5.98002e-17
6.27151e-17
6.27492e-17
6.12395e-17
6.2326e-17
6.21789e-17
6.50888e-17
6.38455e-17
6.44247e-17
6.41371e-17
6.41979e-17
6.47374e-17
6.29507e-17
6.16409e-17
6.30472e-17
6.27747e-17
6.35271e-17
6.50704e-17
6.34555e-17
6.37666e-17
6.39946e-17
6.51524e-17
6.32528e-17
6.34801e-17
6.24569e-17
6.28834e-17
6.2379e-17
6.39353e-17
6.27246e-17
6.40199e-17
6.48641e-17
6.12579e-17
6.38412e-17
6.4994e-17
6.18863e-17
6.34046e-17
6.36321e-17
5.99128e-17
6.20815e-17
6.36128e-17
6.37923e-17
6.43854e-17
6.11299e-17
6.08808e-17
6.29005e-17
6.14288e-17
6.31903e-17
6.24451e-17
6.37631e-17
6.40754e-17
6.32139e-17
6.40263e-17
6.62828e-17
6.15477e-17
6.24735e-17
6.49272e-17
6.5346e-17
6.28348e-17
6.33196e-17
6.40945e-17
6.52603e-17
6.47095e-17
6.29087e-17
6.35825e-17
6.15196e-17
6.46883e-17
6.52957e-17
6.07622e-17
6.36407e-17
6.49924e-17
6.21161e-17
6.30997e-17
6.22925e-17
6.18821e-17
6.23287e-17
6.4611e-17
6.35e-17
6.46453e-17
6.28931e-17
6.4121e-17
6.23409e-17
6.39841e-17
6.6524e-17
6.29073e-17
6.7966e-17
6.04478e-17
6.60507e-17
6.13749e-17
6.53971e-17
6.07501e-17
6.49563e-17
5.95379e-17
6.57581e-17
5.94435e-17
6.37417e-17
5.96972e-17
6.43515e-17
6.03455e-17
6.65455e-17
6.1683e-17
6.48558e-17
5.81859e-17
6.41743e-17
6.00189e-17
6.52939e-17
6.04886e-17
6.69886e-17
6.06084e-17
6.61853e-17
6.05589e-17
6.68851e-17
6.18177e-17
6.57731e-17
5.84755e-17
6.54551e-17
5.97875e-17
6.51819e-17
5.85689e-17
6.36273e-17
6.05629e-17
6.8226e-17
6.06341e-17
6.60655e-17
6.21281e-17
6.49998e-17
6.25988e-17
6.85057e-17
6.12807e-17
6.74003e-17
6.25595e-17
6.64094e-17
5.91941e-17
6.48254e-17
6.25845e-17
1.127e-16
1.20079e-16
1.20658e-16
1.16461e-16
1.20501e-16
1.17798e-16
1.23679e-16
1.18073e-16
1.13121e-16
1.15002e-16
1.17699e-16
1.2322e-16
1.16151e-16
1.23733e-16
1.12179e-16
1.18087e-16
1.23412e-16
1.19542e-16
1.16806e-16
1.15908e-16
1.11843e-16
1.20202e-16
1.16211e-16
1.21301e-16
1.14825e-16
1.22402e-16
1.19128e-16
1.16879e-16
1.17066e-16
1.18304e-16
1.12158e-16
1.26421e-16
1.19931e-16
1.18834e-16
1.19183e-16
1.21201e-16
1.18101e-16
1.14832e-16
1.20435e-16
1.18359e-16
1.10692e-16
1.18876e-16
1.20868e-16
1.19354e-16
1.21648e-16
1.1555e-16
1.17527e-16
1.1675e-16
1.18588e-16
1.16094e-16
1.15296e-16
1.19278e-16
1.19557e-16
1.10486e-16
1.21432e-16
1.19646e-16
1.1958e-16
1.14957e-16
1.16738e-16
1.21087e-16
1.14488e-16
1.24063e-16
1.20059e-16
1.17426e-16
1.13573e-16
1.15485e-16
1.16818e-16
1.27503e-16
1.1329e-16
1.15792e-16
1.20718e-16
1.16263e-16
1.18699e-16
1.18125e-16
1.19894e-16
1.14137e-16
1.25804e-16
1.14902e-16
1.16396e-16
1.21417e-16
1.15802e-16
1.2014e-16
1.16668e-16
1.20727e-16
1.20565e-16
1.12625e-16
1.15545e-16
1.15114e-16
1.18843e-16
1.19396e-16
1.16386e-16
1.20407e-16
1.24323e-16
1.13607e-16
1.16727e-16
1.20223e-16
1.17004e-16
1.22366e-16
1.17466e-16
1.16633e-16
1.1922e-16
1.15407e-16
1.20962e-16
1.17981e-16
1.18497e-16
1.15927e-16
1.18839e-16
1.13041e-16
1.14887e-16
1.19354e-16
1.17075e-16
1.17653e-16
1.15285e-16
1.15816e-16
1.13764e-16
1.17902e-16
1.18083e-16
1.13131e-16
1.16011e-16
1.14597e-16
1.21998e-16
1.2349e-16
1.19442e-16
1.17766e-16
1.16939e-16
1.18428e-16
1.20287e-16
1.1887e-16
1.17064e-16
1.14878e-16
1.20018e-16
1.1672e-16
1.19905e-16
1.16777e-16
1.18083e-16
1.2114e-16
1.12867e-16
1.15314e-16
1.17524e-16
1.13983e-16
1.17153e-16
1.21018e-16
1.18094e-16
1.16032e-16
1.20027e-16
1.15302e-16
1.16756e-16
1.205e-16
1.19371e-16
1.17295e-16
1.19741e-16
1.23141e-16
1.23234e-16
1.20657e-16
1.14765e-16
1.20963e-16
1.23244e-16
1.17584e-16
1.21544e-16
1.17431e-16
1.16e-16
1.17743e-16
1.18885e-16
1.19498e-16
1.19316e-16
1.22514e-16
1.19404e-16
1.16208e-16
1.19814e-16
1.15886e-16
1.18364e-16
1.17626e-16
1.19206e-16
1.15944e-16
1.14996e-16
1.1808e-16
1.19363e-16
1.19737e-16
1.15316e-16
1.20296e-16
1.18227e-16
1.17031e-16
1.17106e-16
1.16676e-16
1.15813e-16
1.16584e-16
1.18292e-16
1.17093e-16
1.18498e-16
1.19022e-16
1.1417e-16
1.16077e-16
1.16398e-16
1.19046e-16
1.16765e-16
1.2042e-16
1.12373e-16
1.17285e-16
1.20713e-16
1.16772e-16
1.22579e-16
1.1842e-16
1.22135e-16
1.17432e-16
1.16473e-16
1.0988e-16
1.23742e-16
1.13102e-16
1.20693e-16
1.11273e-16
1.24496e-16
1.17762e-16
1.24225e-16
1.1276e-16
1.21946e-16
1.16226e-16
1.24666e-16
1.1187e-16
1.20293e-16
1.11911e-16
1.22305e-16
1.13958e-16
1.25095e-16
1.14584e-16
1.26115e-16
1.14823e-16
1.20929e-16
1.15931e-16
1.24171e-16
1.13231e-16
1.17718e-16
1.10697e-16
1.23091e-16
1.14035e-16
1.25028e-16
1.12628e-16
1.22795e-16
1.11666e-16
1.21664e-16
1.09018e-16
1.23796e-16
1.1313e-16
1.2134e-16
1.13789e-16
1.23373e-16
1.15466e-16
1.23382e-16
1.09187e-16
1.18968e-16
1.10562e-16
1.22099e-16
1.14517e-16
1.21725e-16
1.13855e-16
1.23412e-16
1.0667e-16
2.29547e-16
2.2225e-16
2.1412e-16
2.16624e-16
2.1766e-16
2.12214e-16
2.22881e-16
2.24758e-16
2.16424e-16
2.27279e-16
2.26272e-16
2.28492e-16
2.26831e-16
2.2148e-16
2.15557e-16
2.18123e-16
2.1348e-16
2.23744e-16
2.15578e-16
2.13785e-16
2.23802e-16
2.21586e-16
2.12005e-16
2.18854e-16
2.25506e-16
2.17247e-16
2.19701e-16
2.21283e-16
2.13552e-16
2.18581e-16
2.17251e-16
2.30135e-16
2.24536e-16
2.18467e-16
2.17727e-16
2.16019e-16
2.16077e-16
2.16648e-16
2.14734e-16
2.13811e-16
2.13498e-16
2.22877e-16
2.2559e-16
2.10709e-16
2.24887e-16
2.28058e-16
2.18401e-16
2.17537e-16
2.15002e-16
2.30895e-16
2.12637e-16
2.22398e-16
2.20951e-16
2.27128e-16
2.35288e-16
2.14266e-16
2.2879e-16
2.19893e-16
2.17237e-16
2.23621e-16
2.35272e-16
2.21568e-16
2.14168e-16
2.16517e-16
2.2442e-16
2.33304e-16
2.09186e-16
2.15738e-16
2.20707e-16
2.23772e-16
2.19947e-16
2.13357e-16
2.15703e-16
2.26935e-16
2.22534e-16
2.12555e-16
2.28431e-16
2.261e-16
2.18598e-16
2.22892e-16
2.2752e-16
2.23202e-16
2.20844e-16
2.21035e-16
2.20831e-16
2.14672e-16
2.30416e-16
2.13642e-16
2.13857e-16
2.35059e-16
2.2198e-16
2.16172e-16
2.27627e-16
2.26702e-16
2.28517e-16
2.22613e-16
2.24317e-16
2.21874e-16
2.27639e-16
2.26679e-16
2.23714e-16
2.24769e-16
2.24195e-16
2.19132e-16
2.2626e-16
2.23815e-16
2.23683e-16
2.20113e-16
2.20641e-16
2.17505e-16
2.22802e-16
2.25012e-16
2.22675e-16
2.14237e-16
2.21281e-16
2.19891e-16
2.20283e-16
2.15521e-16
2.21851e-16
2.17376e-16
2.16263e-16
2.2195e-16
2.27729e-16
2.29866e-16
2.23731e-16
2.19703e-16
2.18512e-16
2.1903e-16
2.23969e-16
2.1749e-16
2.16997e-16
2.20357e-16
2.20656e-16
2.1347e-16
2.12419e-16
2.18671e-16
2.27404e-16
2.21274e-16
2.16981e-16
2.22914e-16
2.20884e-16
2.23877e-16
2.20324e-16
2.28878e-16
2.15179e-16
2.23424e-16
2.19828e-16
2.23082e-16
2.26623e-16
2.24853e-16
2.24456e-16
2.09398e-16
2.1728e-16
2.09856e-16
2.2179e-16
2.13796e-16
2.1574e-16
2.22671e-16
2.19921e-16
2.26127e-16
2.30702e-16
2.28428e-16
2.18173e-16
2.18017e-16
2.17149e-16
2.13485e-16
2.17177e-16
2.2239e-16
2.1428e-16
2.20285e-16
2.25435e-16
2.22528e-16
2.2484e-16
2.23319e-16
2.2293e-16
2.23715e-16
2.25619e-16
2.20702e-16
2.22024e-16
2.26041e-16
2.19927e-16
2.22754e-16
2.22552e-16
2.19136e-16
2.20543e-16
2.22971e-16
2.229e-16
2.26479e-16
2.18114e-16
2.23831e-16
2.23229e-16
2.19491e-16
2.25739e-16
2.20278e-16
2.16984e-16
2.14326e-16
2.25744e-16
2.22313e-16
2.13512e-16
2.24231e-16
2.16953e-16
2.19057e-16
2.17661e-16
2.13755e-16
2.2698e-16
2.14594e-16
2.29043e-16
2.09111e-16
2.30251e-16
2.14579e-16
2.32344e-16
2.1002e-16
2.2545e-16
2.13484e-16
2.32053e-16
2.04978e-16
2.29287e-16
2.0888e-16
2.37892e-16
2.15986e-16
2.37235e-16
2.1758e-16
2.34806e-16
2.15711e-16
2.26225e-16
2.17142e-16
2.3376e-16
2.1183e-16
2.33587e-16
2.136e-16
2.35458e-16
2.18913e-16
2.31622e-16
2.15333e-16
2.3132e-16
2.07884e-16
2.34111e-16
2.27542e-16
2.3569e-16
2.15331e-16
2.28963e-16
2.11317e-16
2.33393e-16
2.13084e-16
2.28567e-16
2.07787e-16
2.31954e-16
2.18761e-16
2.27797e-16
2.11157e-16
2.30349e-16
2.11596e-16
2.2896e-16
2.09577e-16
2.29826e-16
2.13019e-16
4.1545e-16
3.98593e-16
4.39727e-16
4.30124e-16
4.20419e-16
4.13928e-16
3.92518e-16
4.12785e-16
4.20872e-16
3.95342e-16
4.06206e-16
4.07488e-16
3.96151e-16
4.12527e-16
4.06779e-16
3.89528e-16
4.21174e-16
4.04813e-16
4.0414e-16
4.24731e-16
4.02446e-16
4.08969e-16
4.12134e-16
4.24466e-16
4.18275e-16
4.08135e-16
4.20139e-16
4.06238e-16
4.04806e-16
4.17233e-16
4.10139e-16
4.13698e-16
3.93919e-16
4.10775e-16
4.14462e-16
4.23371e-16
4.08512e-16
4.2195e-16
4.35126e-16
4.28383e-16
4.26378e-16
3.99889e-16
4.12345e-16
4.22874e-16
4.05382e-16
4.12865e-16
4.1039e-16
4.21249e-16
4.14196e-16
4.07352e-16
4.23862e-16
4.23443e-16
4.2499e-16
4.22831e-16
4.03425e-16
3.85323e-16
4.07579e-16
4.08981e-16
4.03348e-16
4.20345e-16
4.195e-16
3.93658e-16
4.02704e-16
4.18159e-16
3.99856e-16
4.03359e-16
4.1321e-16
4.18816e-16
4.10314e-16
4.25602e-16
4.27953e-16
3.94549e-16
4.17602e-16
4.19302e-16
4.23341e-16
4.05036e-16
4.08368e-16
4.16806e-16
4.08778e-16
4.17321e-16
4.16307e-16
4.16319e-16
4.07237e-16
4.09088e-16
4.18407e-16
4.03943e-16
4.25441e-16
4.05062e-16
4.00021e-16
3.935e-16
3.94065e-16
4.10379e-16
4.23904e-16
3.93304e-16
4.12615e-16
4.08796e-16
4.13401e-16
3.97273e-16
4.23928e-16
3.96748e-16
4.01301e-16
4.17115e-16
4.05688e-16
4.08238e-16
4.07874e-16
4.18371e-16
4.19585e-16
4.20522e-16
4.12049e-16
4.09452e-16
4.20815e-16
4.21196e-16
4.19738e-16
4.26948e-16
4.07535e-16
4.03439e-16
4.20491e-16
4.202e-16
4.10013e-16
4.16093e-16
4.05715e-16
3.94807e-16
4.03635e-16
4.00105e-16
4.07777e-16
4.03873e-16
4.07028e-16
3.9693e-16
4.01951e-16
4.09349e-16
4.2919e-16
4.11339e-16
4.01172e-16
4.14316e-16
4.02897e-16
4.12569e-16
4.06202e-16
4.20448e-16
4.16922e-16
4.1149e-16
4.03874e-16
4.08346e-16
4.09963e-16
3.94623e-16
4.13505e-16
4.17446e-16
4.16572e-16
4.08072e-16
3.98706e-16
4.03155e-16
4.09006e-16
4.23805e-16
4.26407e-16
4.01975e-16
4.08653e-16
4.3082e-16
4.27457e-16
4.10218e-16
3.96842e-16
4.02893e-16
4.10413e-16
4.03661e-16
4.1716e-16
4.18001e-16
4.27268e-16
4.12848e-16
4.14898e-16
4.07231e-16
4.18244e-16
4.15732e-16
3.99492e-16
3.93142e-16
4.04256e-16
4.09982e-16
3.90394e-16
4.14179e-16
4.04238e-16
4.20019e-16
4.20833e-16
4.14237e-16
4.21387e-16
4.10927e-16
3.9791e-16
4.16688e-16
4.17898e-16
4.12296e-16
4.11478e-16
4.07212e-16
4.02958e-16
4.20538e-16
4.0352e-16
4.24135e-16
4.18007e-16
4.21955e-16
4.14837e-16
4.16425e-16
4.13412e-16
4.04722e-16
4.13788e-16
4.07361e-16
4.23889e-16
4.22357e-16